 Q-Chem 5.0, Q-Chem, Inc., Pleasanton, CA (2017)
 Q-Chem 5.0.1 for Intel X86 EM64T Linux

User input:
--------------------------------------------------------------
$rem
  method = hf
  basis = def2-svpd
  scf_convergence = 11
  thresh = 14
  gen_scfman = true
  n_frozen_core = 0
  cis_n_roots = 10
  cis_singlets = true
  cis_triplets = false
  rpa = 2
  cis_moments = true
  cis_dynamic_mem = true
$end

$molecule
0 1
Ar     0.000000000000000    0.000000000000000   -0.857713330500000
$end
--------------------------------------------------------------

             Standard Nuclear Orientation (Angstroms)
    I     Atom           X                Y                Z
 ----------------------------------------------------------------
    1      Ar      0.0000000000     0.0000000000     0.0000000000
 ----------------------------------------------------------------

    9    -526.6323968555      6.98e-13  Convergence criterion met
 Total energy in the final basis set =     -526.6323968555

                    Orbital Energies (a.u.)
 --------------------------------------------------------------

 Alpha MOs
 -- Occupied --
******* -12.331  -9.588  -9.588  -9.588  -1.279  -0.595  -0.595
 -0.595

          Ground-State Mulliken Net Atomic Charges

     Atom                 Charge (a.u.)
  ----------------------------------------
      1 Ar                   -0.000000
  ----------------------------------------
  Sum of atomic charges =    -0.000000

                    Cartesian Multipole Moments
 -----------------------------------------------------------------
    Charge (ESU x 10^10)
                -0.0000
    Dipole Moment (Debye)
         X      -0.0000      Y       0.0000      Z       0.0000
       Tot       0.0000
    Quadrupole Moments (Debye-Ang)
        XX     -11.7608     XY      -0.0000     YY     -11.7608
        XZ      -0.0000     YZ       0.0000     ZZ     -11.7608

 STANDARD THERMODYNAMIC QUANTITIES AT   298.15 K  AND     1.00 ATM

   Translational Enthalpy:        0.889 kcal/mol
   Rotational Enthalpy:           0.000 kcal/mol
   Vibrational Enthalpy:          0.000 kcal/mol
   gas constant (RT):             0.592 kcal/mol
   Translational Entropy:        36.983  cal/mol.K
   Rotational Entropy:            0.000  cal/mol.K
   Vibrational Entropy:           0.000  cal/mol.K

   Total Enthalpy:                1.481 kcal/mol
   Total Entropy:                36.983  cal/mol.K

 Total job time:  0.33s(wall), 0.32s(cpu)
        *  Thank you very much for using Q-Chem.  Have a nice day.  *
