============================== echo of input deck ==============================
echo

geometry units angstrom
S          -1.71956        -0.00008        -0.00009
S           1.13397         0.99623         0.32378
S           1.13395        -0.99624        -0.32388
C          -0.51264         1.34934        -0.38930
C          -0.51251        -1.34919         0.38961
H          -0.43862         1.46792        -1.47144
H          -0.87301         2.27578         0.06671
H          -0.43822        -1.46730         1.47178
H          -0.87299        -2.27583        -0.06589
end

basis
* library 6-31g*
end

dft
  xc b3lyp
end

property
  response 1 0.0
end

task dft property

================================================================================

 Output coordinates in angstroms (scale by  1.889725989 to convert to a.u.)

  No.       Tag          Charge          X              Y              Z
 ---- ---------------- ---------- -------------- -------------- --------------
    1 S                   16.0000     0.00000000     0.00000000     1.71956031
    2 S                   16.0000     0.28681088     1.00751653    -1.13395969
    3 S                   16.0000    -0.28681088    -1.00751653    -1.13395969
    4 C                    6.0000    -0.43902731     1.33395887     0.51257531
    5 C                    6.0000     0.43902731    -1.33395887     0.51257531
    6 H                    1.0000    -1.52481517     1.41225133     0.43842031
    7 H                    1.0000    -0.01780712     2.27670090     0.87300031
    8 H                    1.0000     1.52481517    -1.41225133     0.43842031
    9 H                    1.0000     0.01780712    -2.27670090     0.87300031

         Total DFT energy =    -1273.178627044748

                       DFT Final Molecular Orbital Analysis
                       ------------------------------------

 Vector   17  Occ=2.000000D+00  E=-5.905473D+00

 Vector   18  Occ=2.000000D+00  E=-8.640559D-01

 Vector   19  Occ=2.000000D+00  E=-7.652596D-01

 Vector   20  Occ=2.000000D+00  E=-7.539825D-01

 Vector   21  Occ=2.000000D+00  E=-6.089789D-01

 Vector   22  Occ=2.000000D+00  E=-6.086777D-01

 Vector   23  Occ=2.000000D+00  E=-4.752944D-01

 Vector   24  Occ=2.000000D+00  E=-4.629343D-01

 Vector   25  Occ=2.000000D+00  E=-4.462801D-01

 Vector   26  Occ=2.000000D+00  E=-4.028048D-01

 Vector   27  Occ=2.000000D+00  E=-3.749583D-01

 Vector   28  Occ=2.000000D+00  E=-3.745338D-01

 Vector   29  Occ=2.000000D+00  E=-3.196696D-01

 Vector   30  Occ=2.000000D+00  E=-2.867072D-01

 Vector   31  Occ=2.000000D+00  E=-2.387474D-01

 Vector   32  Occ=2.000000D+00  E=-2.319717D-01

 Vector   33  Occ=0.000000D+00  E=-5.183972D-02

 Vector   34  Occ=0.000000D+00  E= 9.603133D-04

 Vector   35  Occ=0.000000D+00  E= 1.396140D-02

 Vector   36  Occ=0.000000D+00  E= 4.631060D-02

 Vector   37  Occ=0.000000D+00  E= 8.080924D-02

 Vector   38  Occ=0.000000D+00  E= 1.076589D-01

 Vector   39  Occ=0.000000D+00  E= 1.129072D-01

 Vector   40  Occ=0.000000D+00  E= 1.308792D-01

 Vector   41  Occ=0.000000D+00  E= 1.349186D-01

 Vector   42  Occ=0.000000D+00  E= 3.067978D-01

 Vector   43  Occ=0.000000D+00  E= 3.304513D-01

 Vector   44  Occ=0.000000D+00  E= 3.321636D-01

 Vector   45  Occ=0.000000D+00  E= 3.475781D-01

 Vector   46  Occ=0.000000D+00  E= 3.532536D-01

 Vector   47  Occ=0.000000D+00  E= 3.646492D-01

 Vector   48  Occ=0.000000D+00  E= 3.720686D-01

 Vector   49  Occ=0.000000D+00  E= 3.898257D-01

 Vector   50  Occ=0.000000D+00  E= 4.014044D-01

 Vector   51  Occ=0.000000D+00  E= 4.215308D-01

 Vector   52  Occ=0.000000D+00  E= 4.218341D-01

 Vector   53  Occ=0.000000D+00  E= 4.547637D-01

 Vector   54  Occ=0.000000D+00  E= 4.561501D-01

 Vector   55  Occ=0.000000D+00  E= 5.105269D-01

     Multipole analysis of the density
     ---------------------------------

     L   x y z        total         alpha         beta         nuclear
     -   - - -        -----         -----         ----         -------
     0   0 0 0     -0.000000    -32.000000    -32.000000     64.000000

     1   1 0 0      0.000000      0.000000      0.000000      0.000000
     1   0 1 0      0.000000      0.000000      0.000000      0.000000
     1   0 0 1      0.229391      0.114695      0.114695     -0.000000

     2   2 0 0    -39.351420    -36.809733    -36.809733     34.268047
     2   1 1 0     -1.620667      3.061995      3.061995     -7.744658
     2   1 0 1     -0.000000     -0.000000     -0.000000     -0.000000
     2   0 2 0    -33.876865   -138.697197   -138.697197    243.517528
     2   0 1 1     -0.000000     -0.000000     -0.000000      0.000000

 Total times  cpu:       79.7s     wall:       62.0s
