 Q-Chem 5.2, Q-Chem, Inc., Pleasanton, CA (2019)
 Q-Chem 5.2.2 for Intel X86 EM64T Linux

User input:
--------------------------------------------------------------
$comment
Divinylbenzene, single point, TD-DFT (5 singlets, 5 triplets), RB3LYP/STO-3G
$end

$rem
method = b3lyp
basis = sto-3g
cis_n_roots = 5
cis_ampl_print = 1
rpa = true
$end

$molecule
0 1
C                  0.27867948   -1.36683162    0.00000000
C                  1.32303041   -0.44173575    0.00000000
C                  1.04434506    0.92484978    0.00000000
C                 -0.27867948    1.36683162    0.00000000
C                 -1.32303041    0.44173575    0.00000000
C                 -1.04434506   -0.92484978    0.00000000
H                  2.36595443   -0.79037726    0.00000000
H                  1.86746094    1.65407997    0.00000000
H                 -2.36595443    0.79037726    0.00000000
H                 -1.86746094   -1.65407997    0.00000000
C                 -0.58659169    2.87589931    0.00000000
C                  0.36350188    3.80076420    0.00000000
H                 -1.65647768    3.12394312    0.00000000
H                  0.14429560    4.87693235    0.00000000
H                  1.43338788    3.55272039    0.00000000
C                  0.58659169   -2.87589931    0.00000000
C                 -0.36350188   -3.80076420    0.00000000
H                  1.65647768   -3.12394312    0.00000000
H                 -0.14429560   -4.87693235    0.00000000
H                 -1.43338788   -3.55272039    0.00000000
$end
--------------------------------------------------------------

             Standard Nuclear Orientation (Angstroms)
    I     Atom           X                Y                Z
 ----------------------------------------------------------------
    1      C       1.3668132833     0.2787694006    -0.0000000000
    2      C       0.4416487095     1.3230594681    -0.0000000000
    3      C      -0.9249184834     1.0442842137    -0.0000000000
    4      C      -1.3668132833    -0.2787694006     0.0000000000
    5      C      -0.4416487095    -1.3230594681     0.0000000000
    6      C       0.9249184834    -1.0442842137     0.0000000000
    7      H       0.7902216068     2.3660064222    -0.0000000000
    8      H      -1.6542028230     1.8673521173    -0.0000000000
    9      H      -0.7902216068    -2.3660064222     0.0000000000
   10      H       1.6542028230    -1.8673521173     0.0000000000
   11      C      -2.8758607131    -0.5867808885     0.0000000000
   12      C      -3.8007881058     0.3632518344    -0.0000000000
   13      H      -3.1238341368    -1.6566831945     0.0000000000
   14      H      -4.8769418324     0.1439747559    -0.0000000000
   15      H      -3.5528146821     1.4331541504    -0.0000000000
   16      C       2.8758607131     0.5867808885    -0.0000000000
   17      C       3.8007881058    -0.3632518344     0.0000000000
   18      H       3.1238341368     1.6566831945    -0.0000000000
   19      H       4.8769418324    -0.1439747559     0.0000000000
   20      H       3.5528146821    -1.4331541504     0.0000000000
 ----------------------------------------------------------------

   11    -382.3003620825      8.88e-09  Convergence criterion met
 Total energy in the final basis set =     -382.3003620825

             TDDFT Excitation Energies
 ---------------------------------------------------

 Excited state   1: excitation energy (eV) =    3.1318
 Total energy for state  1:                  -382.18527032 au
    Multiplicity: Triplet
    Trans. Mom.:  0.0000 X   0.0000 Y   0.0000 Z
    Strength   :     0.0000000000
    X: D(   12) --> V(   13) amplitude = -0.0162
    X: D(   28) --> V(    5) amplitude = -0.1039
    Y: D(   28) --> V(    5) amplitude = -0.0605
    X: D(   31) --> V(    7) amplitude =  0.0156
    X: D(   32) --> V(    1) amplitude =  0.0150
    X: D(   32) --> V(    4) amplitude =  0.1817
    Y: D(   32) --> V(    4) amplitude =  0.0899
    X: D(   33) --> V(    3) amplitude =  0.3201
    Y: D(   33) --> V(    3) amplitude =  0.1179
    X: D(   34) --> V(    2) amplitude = -0.3122
    Y: D(   34) --> V(    2) amplitude = -0.1134
    X: D(   35) --> V(    1) amplitude =  0.9063
    Y: D(   35) --> V(    1) amplitude =  0.1705

 Excited state   2: excitation energy (eV) =    4.1373
 Total energy for state  2:                  -382.14831833 au
    Multiplicity: Triplet
    Trans. Mom.:  0.0000 X   0.0000 Y   0.0000 Z
    Strength   :     0.0000000000
    X: D(   18) --> V(   10) amplitude = -0.0163
    X: D(   28) --> V(    1) amplitude = -0.0466
    Y: D(   28) --> V(    1) amplitude = -0.0145
    X: D(   28) --> V(    4) amplitude = -0.0693
    Y: D(   28) --> V(    4) amplitude = -0.0284
    X: D(   29) --> V(    7) amplitude = -0.0164
    X: D(   32) --> V(    3) amplitude =  0.3029
    Y: D(   32) --> V(    3) amplitude =  0.1014
    X: D(   32) --> V(    5) amplitude =  0.0655
    Y: D(   32) --> V(    5) amplitude =  0.0272
    X: D(   33) --> V(    1) amplitude =  0.6931
    Y: D(   33) --> V(    1) amplitude =  0.1116
    X: D(   33) --> V(    4) amplitude =  0.2784
    Y: D(   33) --> V(    4) amplitude =  0.0960
    X: D(   35) --> V(    3) amplitude =  0.6185
    Y: D(   35) --> V(    3) amplitude =  0.1184
    X: D(   35) --> V(    5) amplitude =  0.0392

 Excited state   3: excitation energy (eV) =    4.7036
 Total energy for state  3:                  -382.12750902 au
    Multiplicity: Triplet
    Trans. Mom.:  0.0000 X   0.0000 Y   0.0000 Z
    Strength   :     0.0000000000
    X: D(   14) --> V(   15) amplitude = -0.0171
    X: D(   15) --> V(   13) amplitude =  0.0143
    X: D(   28) --> V(    3) amplitude =  0.1279
    Y: D(   28) --> V(    3) amplitude =  0.0426
    X: D(   28) --> V(    5) amplitude = -0.0983
    Y: D(   28) --> V(    5) amplitude = -0.0416
    X: D(   32) --> V(    1) amplitude = -0.3731
    Y: D(   32) --> V(    1) amplitude = -0.0761
    X: D(   32) --> V(    4) amplitude = -0.0580
    Y: D(   32) --> V(    4) amplitude = -0.0143
    X: D(   33) --> V(    3) amplitude = -0.2888
    Y: D(   33) --> V(    3) amplitude = -0.0596
    X: D(   33) --> V(    5) amplitude = -0.1081
    Y: D(   33) --> V(    5) amplitude = -0.0421
    X: D(   34) --> V(    1) amplitude =  0.1427
    X: D(   34) --> V(    2) amplitude = -0.7906
    Y: D(   34) --> V(    2) amplitude = -0.1237
    X: D(   34) --> V(    4) amplitude = -0.0168
    X: D(   35) --> V(    1) amplitude = -0.1529
    X: D(   35) --> V(    2) amplitude = -0.0939
    X: D(   35) --> V(    4) amplitude = -0.3036
    Y: D(   35) --> V(    4) amplitude = -0.0757

 Excited state   4: excitation energy (eV) =    4.9660
 Total energy for state  4:                  -382.11786440 au
    Multiplicity: Triplet
    Trans. Mom.:  0.0000 X   0.0000 Y   0.0000 Z
    Strength   :     0.0000000000
    X: D(   28) --> V(    3) amplitude = -0.0163
    X: D(   28) --> V(    5) amplitude =  0.0182
    X: D(   32) --> V(    1) amplitude =  0.0495
    X: D(   32) --> V(    2) amplitude =  0.1338
    Y: D(   32) --> V(    2) amplitude =  0.0187
    X: D(   33) --> V(    3) amplitude =  0.0295
    X: D(   34) --> V(    1) amplitude =  0.7174
    Y: D(   34) --> V(    1) amplitude =  0.0369
    X: D(   34) --> V(    2) amplitude =  0.1538
    Y: D(   34) --> V(    2) amplitude =  0.0206
    X: D(   34) --> V(    4) amplitude = -0.1195
    Y: D(   34) --> V(    4) amplitude = -0.0189
    X: D(   35) --> V(    1) amplitude =  0.0307
    X: D(   35) --> V(    2) amplitude = -0.6531
    Y: D(   35) --> V(    2) amplitude = -0.0371
    X: D(   35) --> V(    4) amplitude =  0.0397

 Excited state   5: excitation energy (eV) =    5.5211
 Total energy for state  5:                  -382.09746384 au
    Multiplicity: Triplet
    Trans. Mom.:  0.0000 X   0.0000 Y   0.0000 Z
    Strength   :     0.0000000000
    X: D(   28) --> V(    3) amplitude =  0.0533
    X: D(   32) --> V(    1) amplitude = -0.5004
    Y: D(   32) --> V(    1) amplitude = -0.0544
    X: D(   32) --> V(    4) amplitude = -0.0758
    Y: D(   32) --> V(    4) amplitude = -0.0222
    X: D(   33) --> V(    3) amplitude = -0.4711
    Y: D(   33) --> V(    3) amplitude = -0.0714
    X: D(   33) --> V(    5) amplitude = -0.0436
    X: D(   34) --> V(    1) amplitude = -0.1605
    X: D(   34) --> V(    2) amplitude =  0.4795
    Y: D(   34) --> V(    2) amplitude =  0.0296
    X: D(   34) --> V(    4) amplitude =  0.0192
    X: D(   35) --> V(    1) amplitude =  0.3418
    Y: D(   35) --> V(    1) amplitude = -0.0275
    X: D(   35) --> V(    2) amplitude = -0.1316
    X: D(   35) --> V(    4) amplitude = -0.3728
    Y: D(   35) --> V(    4) amplitude = -0.0546

 Excited state   6: excitation energy (eV) =    5.6306
 Total energy for state  6:                  -382.09344110 au
    Multiplicity: Singlet
    Trans. Mom.: -0.2989 X   0.0490 Y   0.0000 Z
    Strength   :     0.0126525401
    X: D(   32) --> V(    2) amplitude = -0.0672
    X: D(   34) --> V(    1) amplitude =  0.7214
    X: D(   34) --> V(    2) amplitude =  0.0192
    X: D(   34) --> V(    4) amplitude = -0.0516
    X: D(   35) --> V(    1) amplitude = -0.1305
    X: D(   35) --> V(    2) amplitude =  0.6747

 Excited state   7: excitation energy (eV) =    5.7431
 Total energy for state  7:                  -382.08930881 au
    Multiplicity: Singlet
    Trans. Mom.:  2.2369 X  -0.0356 Y   0.0000 Z
    Strength   :     0.7041890558
    X: D(   23) --> V(   24) amplitude = -0.0151
    X: D(   26) --> V(   15) amplitude =  0.0154
    X: D(   26) --> V(   22) amplitude =  0.0178
    X: D(   28) --> V(    5) amplitude =  0.0305
    Y: D(   28) --> V(    5) amplitude =  0.0195
    X: D(   29) --> V(   16) amplitude =  0.0241
    X: D(   30) --> V(    7) amplitude =  0.0251
    X: D(   30) --> V(    8) amplitude = -0.0157
    X: D(   30) --> V(   17) amplitude = -0.0216
    X: D(   30) --> V(   20) amplitude = -0.0160
    X: D(   32) --> V(    2) amplitude = -0.0175
    X: D(   32) --> V(    4) amplitude = -0.0530
    Y: D(   32) --> V(    4) amplitude = -0.0225
    X: D(   33) --> V(    3) amplitude = -0.0630
    Y: D(   33) --> V(    3) amplitude = -0.0315
    X: D(   34) --> V(    1) amplitude =  0.1330
    X: D(   34) --> V(    2) amplitude = -0.1025
    Y: D(   34) --> V(    2) amplitude = -0.0142
    X: D(   35) --> V(    1) amplitude =  0.9836
    Y: D(   35) --> V(    1) amplitude = -0.1011
    X: D(   35) --> V(    2) amplitude =  0.0495

 Excited state   8: excitation energy (eV) =    6.6142
 Total energy for state  8:                  -382.05729624 au
    Multiplicity: Singlet
    Trans. Mom.: -0.0000 X  -0.0000 Y   0.0000 Z
    Strength   :     0.0000000000
    X: D(   32) --> V(    3) amplitude =  0.0417
    X: D(   32) --> V(    5) amplitude = -0.0175
    X: D(   33) --> V(    1) amplitude =  0.7866
    X: D(   33) --> V(    4) amplitude = -0.0706
    X: D(   35) --> V(    3) amplitude = -0.6117
    Y: D(   35) --> V(    3) amplitude = -0.0153

 Excited state   9: excitation energy (eV) =    7.0308
 Total energy for state  9:                  -382.04198639 au
    Multiplicity: Singlet
    Trans. Mom.:  0.5228 X  -0.8975 Y   0.0000 Z
    Strength   :     0.1858456783
    X: D(   17) --> V(   12) amplitude =  0.0144
    X: D(   19) --> V(    7) amplitude = -0.0163
    X: D(   19) --> V(    8) amplitude =  0.0154
    X: D(   22) --> V(   18) amplitude = -0.0173
    X: D(   23) --> V(   13) amplitude =  0.0169
    X: D(   23) --> V(   16) amplitude =  0.0255
    X: D(   25) --> V(   16) amplitude = -0.0241
    X: D(   26) --> V(   13) amplitude =  0.0232
    X: D(   26) --> V(   16) amplitude =  0.0163
    X: D(   29) --> V(   18) amplitude =  0.0172
    X: D(   30) --> V(    8) amplitude = -0.0165
    X: D(   30) --> V(   14) amplitude =  0.0213
    X: D(   30) --> V(   19) amplitude = -0.0300
    Y: D(   30) --> V(   19) amplitude = -0.0158
    X: D(   30) --> V(   25) amplitude =  0.0218
    X: D(   31) --> V(    7) amplitude =  0.0244
    X: D(   31) --> V(   17) amplitude = -0.0246
    X: D(   32) --> V(    1) amplitude = -0.0179
    X: D(   32) --> V(    2) amplitude =  0.2470
    Y: D(   32) --> V(    2) amplitude =  0.0408
    X: D(   33) --> V(    3) amplitude = -0.0379
    X: D(   34) --> V(    1) amplitude = -0.6393
    Y: D(   34) --> V(    1) amplitude =  0.0711
    X: D(   34) --> V(    2) amplitude = -0.0383
    X: D(   34) --> V(    4) amplitude = -0.1793
    Y: D(   34) --> V(    4) amplitude = -0.0397
    X: D(   35) --> V(    1) amplitude =  0.0496
    X: D(   35) --> V(    2) amplitude =  0.7050
    Y: D(   35) --> V(    2) amplitude = -0.0713

 Excited state  10: excitation energy (eV) =    7.5406
 Total energy for state 10:                  -382.02324841 au
    Multiplicity: Singlet
    Trans. Mom.: -0.0000 X  -0.0000 Y   0.0000 Z
    Strength   :     0.0000000000
    X: D(   28) --> V(    2) amplitude =  0.0241
    X: D(   32) --> V(    3) amplitude = -0.0563
    X: D(   33) --> V(    1) amplitude =  0.1868
    Y: D(   33) --> V(    1) amplitude = -0.0237
    X: D(   33) --> V(    2) amplitude = -0.8884
    X: D(   33) --> V(    4) amplitude = -0.0392
    X: D(   34) --> V(    3) amplitude = -0.3286
    X: D(   34) --> V(    5) amplitude =  0.0340
    X: D(   35) --> V(    3) amplitude =  0.2474
    Y: D(   35) --> V(    3) amplitude = -0.0232

 ---------------------------------------------------

             Orbital Energies (a.u.) and Symmetries
 --------------------------------------------------------------

 Alpha MOs, Restricted
 -- Occupied --
-10.018 -10.018 -10.008 -10.008 -10.007 -10.007 -10.006 -10.005
  1 Bu    1 Ag    2 Bu    2 Ag    3 Bu    3 Ag    4 Bu    4 Ag
 -9.992  -9.992  -0.818  -0.755  -0.721  -0.704  -0.670  -0.585
  5 Ag    5 Bu    6 Ag    6 Bu    7 Ag    7 Bu    8 Bu    8 Ag
 -0.561  -0.532  -0.512  -0.462  -0.439  -0.410  -0.400  -0.397
  9 Ag    9 Bu   10 Ag   11 Ag   10 Bu   11 Bu   12 Bu   12 Ag
 -0.376  -0.358  -0.349  -0.330  -0.305  -0.295  -0.281  -0.263
 13 Bu   14 Bu   13 Ag    1 Au   15 Bu   14 Ag   15 Ag    1 Bg
 -0.216  -0.198  -0.160
  2 Au    2 Bg    3 Bg

 Beta MOs, Restricted
 -- Occupied --
-10.018 -10.018 -10.008 -10.008 -10.007 -10.007 -10.006 -10.005
  1 Bu    1 Ag    2 Bu    2 Ag    3 Bu    3 Ag    4 Bu    4 Ag
 -9.992  -9.992  -0.818  -0.755  -0.721  -0.704  -0.670  -0.585
  5 Ag    5 Bu    6 Ag    6 Bu    7 Ag    7 Bu    8 Bu    8 Ag
 -0.561  -0.532  -0.512  -0.462  -0.439  -0.410  -0.400  -0.397
  9 Ag    9 Bu   10 Ag   11 Ag   10 Bu   11 Bu   12 Bu   12 Ag
 -0.376  -0.358  -0.349  -0.330  -0.305  -0.295  -0.281  -0.263
 13 Bu   14 Bu   13 Ag    1 Au   15 Bu   14 Ag   15 Ag    1 Bg
 -0.216  -0.198  -0.160
  2 Au    2 Bg    3 Bg

          Ground-State Mulliken Net Atomic Charges

     Atom                 Charge (a.u.)
  ----------------------------------------
      1 C                    -0.004104
      2 C                    -0.079244
      3 C                    -0.077213
      4 C                    -0.004104
      5 C                    -0.079244
      6 C                    -0.077213
      7 H                     0.078761
      8 H                     0.079722
      9 H                     0.078761
     10 H                     0.079722
     11 C                    -0.075269
     12 C                    -0.156380
     13 H                     0.078811
     14 H                     0.078363
     15 H                     0.076553
     16 C                    -0.075269
     17 C                    -0.156380
     18 H                     0.078811
     19 H                     0.078363
     20 H                     0.076553
  ----------------------------------------
  Sum of atomic charges =     0.000000

                    Cartesian Multipole Moments
 -----------------------------------------------------------------
    Charge (ESU x 10^10)
                 0.0000
    Dipole Moment (Debye)
         X      -0.0000      Y       0.0000      Z       0.0000
       Tot       0.0000
    Quadrupole Moments (Debye-Ang)
        XX     -50.9644     XY      -0.1107     YY     -50.1432
        XZ       0.0000     YZ      -0.0000     ZZ     -58.5742

 Total job time:  5.93s(wall), 70.07s(cpu)
        *  Thank you very much for using Q-Chem.  Have a nice day.  *
