                         Program Version 4.2.1 -  RELEASE  -
|  1> ! Opt HF-3C
|  2>
|  3> % geom
|  4>     Constraints
|  5>         {C 0 C}
|  6>     end
|  7> end
|  8>
|  9> * xyz 0 1
| 10>     H   0   0   0
| 11>     H   0   0   1
| 12> *
| 13>
| 14>                          ****END OF INPUT****
 Total Charge           Charge          ....    0
 Multiplicity           Mult            ....    1
 Number of Electrons    NEL             ....    2
Dispersion correction           -0.001620239
FINAL SINGLE POINT ENERGY        -1.063891182418
Dispersion correction            ... done
Dispersion correction           -0.000955440
FINAL SINGLE POINT ENERGY        -1.103598263394
Dispersion correction            ... done
Dispersion correction           -0.000697205
FINAL SINGLE POINT ENERGY        -1.117488048105
Dispersion correction            ... done
FINAL SINGLE POINT ENERGY        -1.118039066851
Dispersion correction            ... done
Dispersion correction           -0.000699430
FINAL SINGLE POINT ENERGY        -1.118167328702
Dispersion correction            ... done
Dispersion correction           -0.000699328
FINAL SINGLE POINT ENERGY        -1.118168004147
Dispersion correction            ... done
                    ***********************HURRAY********************

CARTESIAN COORDINATES (ANGSTROEM)
---------------------------------
  H      0.000000    0.000000   -0.000000
  H      0.000000    0.000000    0.707355

 Multiplicity           Mult            ....    1
 Number of Electrons    NEL             ....    2
 Basis Dimension        Dim             ....    2

ORBITAL ENERGIES
----------------

  NO   OCC          E(Eh)            E(eV)
   0   2.0000      -0.589731       -16.0474
   1   0.0000       0.710749        19.3405

MULLIKEN ATOMIC CHARGES
-----------------------
   0 H :   -0.000000
   1 H :    0.000000
Sum of atomic charges:    0.0000000

LOEWDIN ATOMIC CHARGES
----------------------
   0 H :    0.000000
   1 H :    0.000000

  Mayer bond orders larger than 0.100000
B(  0-H ,  1-H ) :   1.0000

Dispersion correction           -0.000699332
FINAL SINGLE POINT ENERGY        -1.118168004865

DIPOLE MOMENT
-------------
                                X             Y             Z
Electronic contribution:     -0.00000      -0.00000       0.00000
Nuclear contribution   :      0.00000       0.00000       0.00000
                        -----------------------------------------
Total Dipole Moment    :      0.00000       0.00000       0.00000
                        -----------------------------------------
Magnitude (a.u.)       :      0.00000
Magnitude (Debye)      :      0.00000

Rotational constants in cm-1:     0.000000    66.848467    66.848467
Rotational constants in MHz :     0.000000 2004066.628540 2004066.628540

                             ****ORCA TERMINATED NORMALLY****
TOTAL RUN TIME: 0 days 0 hours 0 minutes 4 seconds 933 msec
