                         Program Version 4.2.0 -  RELEASE  -
|  1> ! MP2 Def2-TZVP
|  2> ! NumFreq
|  3> ! TightSCF Grid5
|  4>
|  5> %pal nprocs 4 end
|  6>
|  7> *xyz  0  1
|  8>  O      1.5213090068      1.1130800050      0.3930730018
|  9>  H      2.3642760106      1.1401460051     -0.0695820003
| 10>  H      0.8362380037      1.2762040057     -0.2938900013
| 11> *
| 12>
| 13>                          ****END OF INPUT****

CARTESIAN COORDINATES (ANGSTROEM)
---------------------------------
  O      1.521309    1.113080    0.393073
  H      2.364276    1.140146   -0.069582
  H      0.836238    1.276204   -0.293890

 Total Charge           Charge          ....    0
 Multiplicity           Mult            ....    1
 Number of Electrons    NEL             ....   10
 Basis Dimension        Dim             ....   43

ORBITAL ENERGIES
----------------

  NO   OCC          E(Eh)            E(eV)
   0   2.0000     -20.561983      -559.5200
   1   2.0000      -1.341098       -36.4931
   2   2.0000      -0.708449       -19.2779
   3   2.0000      -0.576076       -15.6758
   4   2.0000      -0.506441       -13.7810
   5   0.0000       0.126174         3.4334
   6   0.0000       0.195774         5.3273
   7   0.0000       0.521362        14.1870
   8   0.0000       0.563322        15.3288
   9   0.0000       0.597770        16.2662

MULLIKEN ATOMIC CHARGES
-----------------------
   0 O :   -0.678192
   1 H :    0.337794
   2 H :    0.340398
Sum of atomic charges:   -0.0000000

LOEWDIN ATOMIC CHARGES
----------------------
   0 O :   -0.331938
   1 H :    0.158386
   2 H :    0.173552

  Mayer bond orders larger than 0.100000
B(  0-O ,  1-H ) :   0.8541 B(  0-O ,  2-H ) :   0.8493

MP2 TOTAL ENERGY:      -76.312578548 Eh
FINAL SINGLE POINT ENERGY       -76.312578547915

DIPOLE MOMENT
-------------
                                X             Y             Z
Electronic contribution:     -0.01488      -0.02502       0.14911
Nuclear contribution   :      0.13143       0.15831      -0.95690
                        -----------------------------------------
Total Dipole Moment    :      0.11654       0.13328      -0.80779
                        -----------------------------------------
Magnitude (a.u.)       :      0.82696
Magnitude (Debye)      :      2.10198

VIBRATIONAL FREQUENCIES
-----------------------

Scaling factor for frequencies =  1.000000000 (already applied!)

   0:         0.00 cm**-1
   1:         0.00 cm**-1
   2:         0.00 cm**-1
   3:         0.00 cm**-1
   4:         0.00 cm**-1
   5:         0.00 cm**-1
   6:      1626.47 cm**-1
   7:      3592.60 cm**-1
   8:      3899.99 cm**-1

IR SPECTRUM
-----------

 Mode    freq (cm**-1)   T**2         TX         TY         TZ
-------------------------------------------------------------------
   6:      1626.47   82.890396  ( -1.394148  -1.452629   8.878999)
   7:      3592.60   22.694685  ( -3.713602   0.731978  -2.892758)
   8:      3899.99   48.622069  (  6.944621  -0.349523  -0.521674)

--------------------------
THERMOCHEMISTRY AT 298.15K
--------------------------

Temperature         ... 298.15 K
Pressure            ... 1.00 atm
Total Mass          ... 18.02 AMU

Throughout the following assumptions are being made:
  (1) The electronic state is orbitally nondegenerate
  (2) There are no thermally accessible electronically excited states
  (3) Hindered rotations indicated by low frequency modes are not
      treated as such but are treated as vibrations and this may
      cause some error
  (4) All equations used are the standard statistical mechanics
      equations for an ideal gas
  (5) All vibrations are strictly harmonic

freq.    1626.47  E(vib)   ...       0.00
freq.    3592.60  E(vib)   ...       0.00
freq.    3899.99  E(vib)   ...       0.00

------------
INNER ENERGY
------------

The inner energy is: U= E(el) + E(ZPE) + E(vib) + E(rot) + E(trans)
    E(el)   - is the total energy from the electronic structure calculation
              = E(kin-el) + E(nuc-el) + E(el-el) + E(nuc-nuc)
    E(ZPE)  - the the zero temperature vibrational energy from the frequency calculation
    E(vib)  - the the finite temperature correction to E(ZPE) due to population
              of excited vibrational states
    E(rot)  - is the rotational thermal energy
    E(trans)- is the translational thermal energy

Summary of contributions to the inner energy U:
Electronic energy                ...    -76.31257856 Eh
Zero point energy                ...      0.02077475 Eh      13.04 kcal/mol
Thermal vibrational correction   ...      0.00000289 Eh       0.00 kcal/mol
Thermal rotational correction    ...      0.00141627 Eh       0.89 kcal/mol
Thermal translational correction ...      0.00141627 Eh       0.89 kcal/mol
-----------------------------------------------------------------------
Total thermal energy                    -76.28896837 Eh

Summary of corrections to the electronic energy:
(perhaps to be used in another calculation)
Total thermal correction                  0.00283544 Eh       1.78 kcal/mol
Non-thermal (ZPE) correction              0.02077475 Eh      13.04 kcal/mol
-----------------------------------------------------------------------
Total correction                          0.02361019 Eh      14.82 kcal/mol

--------
ENTHALPY
--------

The enthalpy is H = U + kB*T
                kB is Boltzmann's constant
Total free energy                 ...    -76.28896837 Eh
Thermal Enthalpy correction       ...      0.00094421 Eh       0.59 kcal/mol
-----------------------------------------------------------------------
Total Enthalpy                    ...    -76.28802416 Eh

Note: Rotational entropy computed according to Herzberg
Infrared and Raman Spectra, Chapter V,1, Van Nostrand Reinhold, 1945
Point Group:  Cs, Symmetry Number:   1
Rotational constants in cm-1:    27.268022    13.907067     9.209894

Vibrational entropy computed according to the QRRHO of S. Grimme
Chem.Eur.J. 2012 18 9955

-------
ENTROPY
-------

The entropy contributions are T*S = T*(S(el)+S(vib)+S(rot)+S(trans))
     S(el)   - electronic entropy
     S(vib)  - vibrational entropy
     S(rot)  - rotational entropy
     S(trans)- translational entropy
The entropies will be listed as mutliplied by the temperature to get
units of energy

Electronic entropy                ...      0.00000000 Eh      0.00 kcal/mol
Vibrational entropy               ...      0.00000326 Eh      0.00 kcal/mol
Rotational entropy                ...      0.00565931 Eh      3.55 kcal/mol
Translational entropy             ...      0.01644380 Eh     10.32 kcal/mol
-----------------------------------------------------------------------
Final entropy term                ...      0.02210638 Eh     13.87 kcal/mol

In case the symmetry of your molecule has not been determined correctly
or in case you have a reason to use a different symmetry number we print
out the resulting rotational entropy values for sn=1,12 :
 --------------------------------------------------------
|  sn= 1 | S(rot)=       0.00565931 Eh      3.55 kcal/mol|
|  sn= 2 | S(rot)=       0.00500486 Eh      3.14 kcal/mol|
|  sn= 3 | S(rot)=       0.00462202 Eh      2.90 kcal/mol|
|  sn= 4 | S(rot)=       0.00435040 Eh      2.73 kcal/mol|
|  sn= 5 | S(rot)=       0.00413971 Eh      2.60 kcal/mol|
|  sn= 6 | S(rot)=       0.00396757 Eh      2.49 kcal/mol|
|  sn= 7 | S(rot)=       0.00382202 Eh      2.40 kcal/mol|
|  sn= 8 | S(rot)=       0.00369594 Eh      2.32 kcal/mol|
|  sn= 9 | S(rot)=       0.00358473 Eh      2.25 kcal/mol|
|  sn=10 | S(rot)=       0.00348525 Eh      2.19 kcal/mol|
|  sn=11 | S(rot)=       0.00339526 Eh      2.13 kcal/mol|
|  sn=12 | S(rot)=       0.00331311 Eh      2.08 kcal/mol|
 --------------------------------------------------------

-------------------
GIBBS FREE ENERGY
-------------------

The Gibbs free energy is G = H - T*S

Total enthalpy                    ...    -76.28802416 Eh
Total entropy correction          ...     -0.02210638 Eh    -13.87 kcal/mol
-----------------------------------------------------------------------
Final Gibbs free energy         ...    -76.31013053 Eh

For completeness - the Gibbs free energy minus the electronic energy
G-E(el)                           ...      0.00244802 Eh      1.54 kcal/mol

                             ****ORCA TERMINATED NORMALLY****
TOTAL RUN TIME: 0 days 0 hours 0 minutes 57 seconds 411 msec
