                         Program Version 4.2.0 -  RELEASE  -
|  1> ! dlpno-ccsd sto-3g noautostart
|  2>
|  3> %basis
|  4>     auxJ "AutoAux"
|  5>     auxC "AutoAux"
|  6> end
|  7>
|  8> *xyz 0 1
|  9>   O      1.784914    1.262422    0.511985
| 10>   H      2.648237    1.072929    0.131631
| 11>   H      1.183168    1.256816   -0.238835
| 12> *
| 13>
| 14>
| 15>
| 16>
| 17>
| 18>
| 19>
| 20>
| 21>                          ****END OF INPUT****

CARTESIAN COORDINATES (ANGSTROEM)
---------------------------------
  O      1.784914    1.262422    0.511985
  H      2.648237    1.072929    0.131631
  H      1.183168    1.256816   -0.238835

 Total Charge           Charge          ....    0
 Multiplicity           Mult            ....    1
 Number of Electrons    NEL             ....   10
 Basis Dimension        Dim             ....    7

ORBITAL ENERGIES
----------------

  NO   OCC          E(Eh)            E(eV)
   0   2.0000     -20.242233      -550.8192
   1   2.0000      -1.265747       -34.4427
   2   2.0000      -0.615339       -16.7442
   3   2.0000      -0.452291       -12.3075
   4   2.0000      -0.390844       -10.6354
   5   0.0000       0.600569        16.3423
   6   0.0000       0.736617        20.0444

E(0)                                       ...    -74.963574242
E(0)                                       ...    -74.963574242
E(CORR)(strong-pairs)                      ...     -0.049905771
E(CORR)(weak-pairs)                        ...      0.000000000
E(CORR)(corrected)                         ...     -0.049905771
E(TOT)                                     ...    -75.013480013

MULLIKEN ATOMIC CHARGES
-----------------------
   0 O :   -0.329384
   1 H :    0.164687
   2 H :    0.164697
Sum of atomic charges:    0.0000000

LOEWDIN ATOMIC CHARGES
----------------------
   0 O :   -0.222985
   1 H :    0.111490
   2 H :    0.111495

  Mayer bond orders larger than 0.100000
B(  0-O ,  1-H ) :   0.9100 B(  0-O ,  2-H ) :   0.9100

FINAL SINGLE POINT ENERGY       -75.013480013162

DIPOLE MOMENT
-------------
                                X             Y             Z
Electronic contribution:     -0.07774       0.05798       0.33613
Nuclear contribution   :      0.21773      -0.16239      -0.94154
                        -----------------------------------------
Total Dipole Moment    :      0.13998      -0.10442      -0.60541
                        -----------------------------------------
Magnitude (a.u.)       :      0.63010
Magnitude (Debye)      :      1.60158

Rotational constants in cm-1:    27.172637    14.432751     9.426085
Rotational constants in MHz : 814615.168427 432682.991980 282586.906303

                             ****ORCA TERMINATED NORMALLY****
TOTAL RUN TIME: 0 days 0 hours 0 minutes 15 seconds 411 msec
