 Q-Chem 4.4, Q-Chem, Inc., Pleasanton, CA (2016)
 Q-Chem 4.4.0 for Intel X86 Linux

User input:
--------------------------------------------------------------
$molecule
0 2
O       1.22227601    0.00000000    0.00000000
O      -0.61113801    1.05852208    0.00000000
O      -0.61113801   -1.05852208    0.00000000
N       0.00000000    0.00000000    0.00000000

$end

$rem
JOBTYPE       freq
METHOD        wb97x-d3
UNRESTRICTED  True
BASIS         6-311+g(d,p)
$end

--------------------------------------------------------------

             Standard Nuclear Orientation (Angstroms)
    I     Atom           X                Y                Z
 ----------------------------------------------------------------
    1      O       1.2222760126     0.0000000000     0.0000000000
    2      O      -0.6111380074     1.0585220800     0.0000000000
    3      O      -0.6111380074    -1.0585220800     0.0000000000
    4      N       0.0000000026     0.0000000000     0.0000000000
 ----------------------------------------------------------------

   15    -280.2183127147      1.37E-09 Convergence criterion met
 Total energy in the final basis set = -280.2183127147

             Orbital Energies (a.u.) and Symmetries
 --------------------------------------------------------------
 Warning : Irrep of orbital(   1) could not be determined
 Warning : Irrep of orbital(   2) could not be determined
 Warning : Irrep of orbital(   3) could not be determined

 Alpha MOs, Unrestricted
 -- Occupied --
-19.367 -19.367 -19.366 -14.781  -1.501  -1.274  -1.274  -0.807
  0 xxx   0 xxx   0 xxx   1 A1'   2 A1'   1 E'    1 E'    3 A1'
 -0.760  -0.730  -0.730  -0.548  -0.548  -0.500  -0.500  -0.480
  1 A2"   2 E'    2 E'    3 E'    3 E'    1 E"    1 E"    1 A2'

 Beta MOs, Unrestricted
 -- Occupied --
-19.358 -19.358 -19.358 -14.782  -1.490  -1.253  -1.253  -0.788
  0 xxx   0 xxx   0 xxx   1 A1'   2 A1'   1 E'    1 E'    3 A1'
 -0.757  -0.705  -0.705  -0.487  -0.487  -0.478  -0.478
  1 A2"   2 E'    2 E'    1 E"    1 E"    3 E'    3 E'

          Ground-State Mulliken Net Atomic Charges

     Atom                 Charge (a.u.)    Spin (a.u.)
  --------------------------------------------------------
      1 O                     0.071077       0.377558
      2 O                     0.071011       0.377465
      3 O                     0.071011       0.377465
      4 N                    -0.213099      -0.132488
  --------------------------------------------------------
  Sum of atomic charges =     0.000000

                    Cartesian Multipole Moments
 -----------------------------------------------------------------
    Charge (ESU x 10^10)
                 0.0000
    Dipole Moment (Debye)
         X       0.0000      Y       0.0000      Z       0.0000
       Tot       0.0000
    Quadrupole Moments (Debye-Ang)
        XX     -22.9724     XY       0.0000     YY     -22.9724
        XZ       0.0000     YZ       0.0000     ZZ     -20.1619

 Frequency:      -390.08                -389.96                 822.75
 Force Cnst:      1.3420                 1.3410                 5.7465
 Red. Mass:      14.9697                14.9664                14.4084
 IR Intens:       69.286                 69.570                 11.597
 Frequency:      1113.23                1115.24                1195.35
 Force Cnst:     11.2148                11.2528                13.4654
 Red. Mass:      15.3592                15.3557                15.9949
 IR Intens:        2.078                  2.102                  0.000

 STANDARD THERMODYNAMIC QUANTITIES AT   298.15 K  AND     1.00 ATM

   This Molecule has  2 Imaginary Frequencies
   Zero point vibrational energy:        6.071 kcal/mol

   Atom    1 Element O  Has Mass   15.99491
   Atom    2 Element O  Has Mass   15.99491
   Atom    3 Element O  Has Mass   15.99491
   Atom    4 Element N  Has Mass   14.00307
   Molecular Mass:    61.987800 amu
   Principal axes and moments of inertia in amu*Bohr^2:
                             1           2           3
    Eigenvalues --      127.99982   127.99982   255.99965
          X               0.00000     1.00000     0.00000
          Y               1.00000     0.00000     0.00000
          Z               0.00000     0.00000     1.00000
   Rotational Symmetry Number is   6
   The Molecule is a Symmetric Top
   Translational Enthalpy:        0.889 kcal/mol
   Rotational Enthalpy:           0.889 kcal/mol
   Vibrational Enthalpy:          6.156 kcal/mol
   gas constant (RT):             0.592 kcal/mol
   Translational Entropy:        38.292  cal/mol.K
   Rotational Entropy:           19.394  cal/mol.K
   Vibrational Entropy:           0.349  cal/mol.K

   Total Enthalpy:                8.526 kcal/mol
   Total Entropy:                58.036  cal/mol.K

 Total job time:  112.19s(wall), 141.49s(cpu)
        *  Thank you very much for using Q-Chem.  Have a nice day.  *
