 Q-Chem 4.4, Q-Chem, Inc., Pleasanton, CA (2016)
 Q-Chem 4.4.2 for Intel X86 EM64T Linux

User input:
--------------------------------------------------------------
$rem
  jobtype = polarizability
  method = hf
  basis = def2-svpd
  scf_convergence = 11
  thresh = 14
  symmetry = false
  sym_ignore = true
  cc_symmetry = false
  ideriv = 0
  response_polar = -1
  scf_max_cycles = 1000
$end

$molecule
1 1
Li     0.000000000000000    0.000000000000000    1.000000000000000
$end
--------------------------------------------------------------

             Standard Nuclear Orientation (Angstroms)
    I     Atom           X                Y                Z
 ----------------------------------------------------------------
    1      Li      0.0000000000     0.0000000000     1.0000000000
 ----------------------------------------------------------------

    7      -7.2328981140      4.29E-13 Convergence criterion met
 Total energy in the final basis set = -7.2328981140
    5      -7.2328981140      9.36E-16 Convergence criterion met
 Total energy in the final basis set = -7.2328981140
    5      -7.2328981139      1.20E-15 Convergence criterion met
 Total energy in the final basis set = -7.2328981139
    5      -7.2328981139      1.29E-15 Convergence criterion met
 Total energy in the final basis set = -7.2328981139
    5      -7.2328624033      1.02E-15 Convergence criterion met
 Total energy in the final basis set = -7.2328624033
    5      -7.2329338246      1.33E-15 Convergence criterion met
 Total energy in the final basis set = -7.2329338246
    5      -7.2328981140      2.38E-15 Convergence criterion met
 Total energy in the final basis set = -7.2328981140
    5      -7.2328981139      1.05E-15 Convergence criterion met
 Total energy in the final basis set = -7.2328981140
    5      -7.2328624033      1.01E-15 Convergence criterion met
 Total energy in the final basis set = -7.2328624033
    5      -7.2329338246      1.46E-15 Convergence criterion met
 Total energy in the final basis set = -7.2329338246
    5      -7.2328981140      2.42E-15 Convergence criterion met
 Total energy in the final basis set = -7.2328981140
    5      -7.2328624033      9.21E-16 Convergence criterion met
 Total energy in the final basis set = -7.2328624033
    5      -7.2329338246      1.31E-15 Convergence criterion met
 Total energy in the final basis set = -7.2329338246
    5      -7.2328266927      2.33E-15 Convergence criterion met
 Total energy in the final basis set = -7.2328266927
    5      -7.2329695353      3.35E-15 Convergence criterion met
 Total energy in the final basis set = -7.2329695353

                    Orbital Energies (a.u.)
 --------------------------------------------------------------

 Alpha MOs
 -- Occupied --
 -2.793

          Ground-State Mulliken Net Atomic Charges

     Atom                 Charge (a.u.)
  ----------------------------------------
      1 Li                    1.000000
  ----------------------------------------
  Sum of atomic charges =     1.000000

                    Cartesian Multipole Moments
 -----------------------------------------------------------------
    Charge (ESU x 10^10)
                 4.8032
    Dipole Moment (Debye)
         X       0.0000      Y       0.0000      Z       4.8032
       Tot       4.8032
    Quadrupole Moments (Debye-Ang)
        XX      -0.4001     XY      -0.0000     YY      -0.4001
        XZ       0.0000     YZ       0.0000     ZZ       4.4032

 STANDARD THERMODYNAMIC QUANTITIES AT   298.15 K  AND     1.00 ATM

   Translational Enthalpy:        0.889 kcal/mol
   Rotational Enthalpy:           0.000 kcal/mol
   Vibrational Enthalpy:          0.000 kcal/mol
   gas constant (RT):             0.592 kcal/mol
   Translational Entropy:        31.798  cal/mol.K
   Rotational Entropy:            0.000  cal/mol.K
   Vibrational Entropy:           0.000  cal/mol.K

   Total Enthalpy:                1.481 kcal/mol
   Total Entropy:                31.798  cal/mol.K

 Total job time:  0.31s(wall), 0.30s(cpu)
        *  Thank you very much for using Q-Chem.  Have a nice day.  *
