 Q-Chem 5.0 (beta), Q-Chem, Inc., Pleasanton, CA (2017)
 Q-Chem 4.4.2 for Intel X86 EM64T Linux

User input:
--------------------------------------------------------------
$rem
  method hf
  basis sto-3g
  scf_convergence 10
  thresh 14
  symmetry false
  sym_ignore true
  scf_final_print 3
  gui 2
$end

$molecule
0 1
O  0.003  1.517  0.000
H  0.913  1.819  0.000
H  0.081  0.555	 0.000
$end
--------------------------------------------------------------

             Standard Nuclear Orientation (Angstroms)
    I     Atom           X                Y                Z
 ----------------------------------------------------------------
    1      O       0.0030000000     1.5170000000     0.0000000000
    2      H       0.9130000000     1.8190000000     0.0000000000
    3      H       0.0810000000     0.5550000000     0.0000000000
 ----------------------------------------------------------------

   10     -74.9637625534      2.70E-11 Convergence criterion met
 Total energy in the final basis set = -74.9637625534

                    Orbital Energies (a.u.)
 --------------------------------------------------------------

 Alpha MOs
 -- Occupied --
-20.243  -1.267  -0.614  -0.454  -0.392

          Ground-State Mulliken Net Atomic Charges

     Atom                 Charge (a.u.)
  ----------------------------------------
      1 O                    -0.360625
      2 H                     0.181612
      3 H                     0.179013
  ----------------------------------------
  Sum of atomic charges =     0.000000

                    Cartesian Multipole Moments
 -----------------------------------------------------------------
    Charge (ESU x 10^10)
                 0.0000
    Dipole Moment (Debye)
         X       1.4400      Y      -0.9491      Z       0.0000
       Tot       1.7246
    Quadrupole Moments (Debye-Ang)
        XX      -4.7882     XY       2.4528     YY      -7.4368
        XZ       0.0000     YZ       0.0000     ZZ      -6.0992

 Total job time:  0.14s(wall), 0.13s(cpu)
        *  Thank you very much for using Q-Chem.  Have a nice day.  *
