 Gaussian 09, Revision D.01,
 Gaussian 09:  ES64L-G09RevD.01 24-Apr-2013

 ----------------------------------------------------------------------
 #p Opt TDA=(Nstates=20,Singlets) pbe1pbe/6-31G(d,p) EmpiricalDispersio
 n=(GD3BJ) Symmetry=Tight Density Population=Regular
 ----------------------------------------------------------------------

 --------------------
 Benzene_Optimisation
 --------------------
 Symbolic Z-matrix:
 Charge =  0 Multiplicity = 1

 SCF Done:  E(RPBE1PBE) =  -231.982357718     A.U. after   11 cycles
 SCF Done:  E(RPBE1PBE) =  -231.976998721     A.U. after   10 cycles
 SCF Done:  E(RPBE1PBE) =  -231.977716568     A.U. after    7 cycles

 Excitation energies and oscillator strengths:

 Excited State   1:      Singlet-A'     5.4086 eV  229.24 nm  f=0.0000  <S**2>=0.000
      20 -> 22        -0.49835
      21 -> 23        -0.49841
 This state for optimization and/or second-order correction.
 Total Energy, E(CIS) =  -231.778955055
 Copying the excited state density for this state as the 1-particle RhoCI density.

 Excited State   2:      Singlet-A'     6.4296 eV  192.83 nm  f=0.0000  <S**2>=0.000
      20 -> 23        -0.49169
      21 -> 22         0.49189

 Excited State   3:      Singlet-A"     7.7687 eV  159.59 nm  f=0.0000  <S**2>=0.000
      18 -> 22        -0.48913
      19 -> 23        -0.48875

 Excited State   4:      Singlet-A'     7.8446 eV  158.05 nm  f=0.8885  <S**2>=0.000
      20 -> 22         0.42837
      20 -> 23        -0.21562
      21 -> 22        -0.21552
      21 -> 23        -0.42832

 Excited State   5:      Singlet-A'     7.8446 eV  158.05 nm  f=0.8885  <S**2>=0.000
      20 -> 22         0.21559
      20 -> 23         0.42843
      21 -> 22         0.42825
      21 -> 23        -0.21556

 Excited State   6:      Singlet-A"     7.8819 eV  157.30 nm  f=0.0000  <S**2>=0.000
      18 -> 22        -0.29850
      18 -> 23        -0.39517
      19 -> 22        -0.40378
      19 -> 23         0.29687

 Excited State   7:      Singlet-A"     7.8819 eV  157.30 nm  f=0.0000  <S**2>=0.000
      18 -> 22         0.39868
      18 -> 23        -0.29465
      19 -> 22        -0.30069
      19 -> 23        -0.40031

 Excited State   8:      Singlet-A"     7.8991 eV  156.96 nm  f=0.0047  <S**2>=0.000
      18 -> 23         0.49509
      19 -> 22        -0.48435

 Excited State   9:      Singlet-A"     8.3578 eV  148.35 nm  f=0.0000  <S**2>=0.000
      21 -> 24        -0.70361

 Excited State  10:      Singlet-A"     8.3583 eV  148.34 nm  f=0.0000  <S**2>=0.000
      20 -> 24         0.70361

 Excited State  11:      Singlet-A'     9.0141 eV  137.54 nm  f=0.0000  <S**2>=0.000
      17 -> 22        -0.64491
      21 -> 25        -0.27918

 Excited State  12:      Singlet-A'     9.0144 eV  137.54 nm  f=0.0000  <S**2>=0.000
      17 -> 23         0.64493
      20 -> 25        -0.27913

 Excited State  13:      Singlet-A"     9.7315 eV  127.40 nm  f=0.0002  <S**2>=0.000
      17 -> 24         0.15307
      20 -> 26         0.46886
      20 -> 27        -0.12868
      21 -> 26         0.12939
      21 -> 27         0.46946

 Excited State  14:      Singlet-A"     9.7739 eV  126.85 nm  f=0.0000  <S**2>=0.000
      15 -> 23         0.48589
      16 -> 22        -0.49022

 Excited State  15:      Singlet-A"     9.8751 eV  125.55 nm  f=0.0000  <S**2>=0.000
      20 -> 26        -0.26371
      20 -> 27        -0.42047
      21 -> 26        -0.42275
      21 -> 27         0.26462

 Excited State  16:      Singlet-A"     9.8751 eV  125.55 nm  f=0.0000  <S**2>=0.000
      20 -> 26         0.42219
      20 -> 27        -0.26367
      21 -> 26        -0.26466
      21 -> 27        -0.42103

 Excited State  17:      Singlet-A"     9.8847 eV  125.43 nm  f=0.0000  <S**2>=0.000
      14 -> 23         0.17590
      15 -> 22        -0.46524
      16 -> 23         0.46728
      19 -> 25        -0.12825

 Excited State  18:      Singlet-A"     9.8848 eV  125.43 nm  f=0.0000  <S**2>=0.000
      14 -> 22        -0.17602
      15 -> 23         0.46841
      16 -> 22         0.46406
      18 -> 25         0.12824

 Excited State  19:      Singlet-A"    10.0070 eV  123.90 nm  f=0.0000  <S**2>=0.000
      20 -> 26        -0.13262
      20 -> 27        -0.48317
      21 -> 26         0.48045
      21 -> 27        -0.13240

 Excited State  20:      Singlet-A"    10.0351 eV  123.55 nm  f=0.0000  <S**2>=0.000
      15 -> 22         0.49128
      16 -> 23         0.48948

 Optimization completed.
    -- Stationary point found.

                         Standard orientation:
 ---------------------------------------------------------------------
 Center     Atomic      Atomic             Coordinates (Angstroms)
 Number     Number       Type             X           Y           Z
 ---------------------------------------------------------------------
      1          6           0       -0.711329   -1.232049    0.000000
      2          6           0        0.711329   -1.232144    0.000000
      3          6           0       -1.422650    0.000082    0.000000
      4          6           0        1.422650   -0.000081    0.000000
      5          6           0        0.711329    1.232049    0.000000
      6          6           0       -0.711329    1.232144    0.000000
      7          1           0        1.253481    2.170966    0.000000
      8          1           0       -1.253399    2.171103    0.000000
      9          1           0       -1.253480   -2.170967    0.000000
     10          1           0       -2.506852    0.000089    0.000000
     11          1           0        1.253400   -2.171102    0.000000
     12          1           0        2.506852   -0.000090    0.000000
 ---------------------------------------------------------------------

 The electronic state is 1-A'.
 Alpha  occ. eigenvalues --  -10.24423 -10.24399 -10.24399 -10.24350 -10.24349
 Alpha  occ. eigenvalues --  -10.24326  -0.86002  -0.75682  -0.75679  -0.61360
 Alpha  occ. eigenvalues --   -0.61360  -0.52785  -0.47819  -0.44547  -0.42681
 Alpha  occ. eigenvalues --   -0.42678  -0.36575  -0.35044  -0.35043  -0.25409
 Alpha  occ. eigenvalues --   -0.25407
 Alpha virt. eigenvalues --    0.00175   0.00176   0.10407   0.15839   0.15948
 Alpha virt. eigenvalues --    0.15949   0.18913   0.18913   0.20004   0.30016
 Alpha virt. eigenvalues --    0.30018   0.31141   0.31141   0.48796   0.53419

 Mulliken charges:
               1
     1  C   -0.132481
     2  C   -0.132462
     3  C   -0.132509
     4  C   -0.132509
     5  C   -0.132481
     6  C   -0.132462
     7  H    0.132478
     8  H    0.132484
     9  H    0.132478
    10  H    0.132489
    11  H    0.132484
    12  H    0.132489
 Sum of Mulliken charges =   0.00000

 Dipole moment (field-independent basis, Debye):
    X=              0.0000    Y=              0.0000    Z=              0.0000  Tot=              0.0000
 Quadrupole moment (field-independent basis, Debye-Ang):
   XX=            -31.2906   YY=            -31.2902   ZZ=            -39.1760
   XY=             -0.0003   XZ=              0.0000   YZ=              0.0000

 Normal termination of Gaussian 09 at Tue Jun 23 19:37:47 2020.
