 Gaussian 09, Revision A.02,
 Gaussian 09:  EM64M-G09RevA.02 11-Jun-2009

 ---------------------
 #t B3LYP/6-31G* Polar
 ---------------------
 ---------------
 trithiolane.g09
 ---------------
 Symbolic Z-matrix:
 Charge =  0 Multiplicity = 1

                         Standard orientation:
 ---------------------------------------------------------------------
 Center     Atomic      Atomic             Coordinates (Angstroms)
 Number     Number       Type             X           Y           Z
 ---------------------------------------------------------------------
      1         16           0       -1.719560   -0.000083   -0.000090
      2         16           0        1.133968    0.996231    0.323780
      3         16           0        1.133951   -0.996239   -0.323880
      4          6           0       -0.512642    1.349339   -0.389300
      5          6           0       -0.512508   -1.349191    0.389610
      6          1           0       -0.438622    1.467919   -1.471440
      7          1           0       -0.873014    2.275778    0.066710
      8          1           0       -0.438218   -1.467301    1.471780
      9          1           0       -0.872987   -2.275832   -0.065890
 ---------------------------------------------------------------------

 SCF Done:  E(RB3LYP) =  -1273.17862462     A.U. after   14 cycles

 The electronic state is 1-A.
 Alpha  occ. eigenvalues --  -88.90946 -88.90946 -88.89049 -10.25832 -10.25832
 Alpha  occ. eigenvalues --   -7.97123  -7.97121  -7.95162  -5.93674  -5.93664
 Alpha  occ. eigenvalues --   -5.93299  -5.93295  -5.92472  -5.92471  -5.91712
 Alpha  occ. eigenvalues --   -5.91340  -5.90548  -0.86406  -0.76526  -0.75399
 Alpha  occ. eigenvalues --   -0.60898  -0.60868  -0.47530  -0.46294  -0.44628
 Alpha  occ. eigenvalues --   -0.40281  -0.37496  -0.37454  -0.31967  -0.28671
 Alpha  occ. eigenvalues --   -0.23875  -0.23198
 Alpha virt. eigenvalues --   -0.05184   0.00096   0.01396   0.04631   0.08081
 Alpha virt. eigenvalues --    0.10766   0.11290   0.13088   0.13492   0.30679
 Alpha virt. eigenvalues --    0.33046   0.33216   0.34757   0.35325   0.36464

 Mulliken atomic charges:
              1
     1  S    0.144099
     2  S    0.064996
     3  S    0.064999
     4  C   -0.580045
     5  C   -0.580053
     6  H    0.224723
     7  H    0.218276
     8  H    0.224728
     9  H    0.218277
 Sum of Mulliken atomic charges =   0.00000

 Dipole moment (field-independent basis, Debye):
    X=             -0.5831    Y=              0.0001    Z=              0.0006  Tot=              0.5831
  Exact polarizability:  75.498   0.000  75.999   0.000   1.520  46.789
 Approx polarizability: 122.168   0.000 131.536   0.000   5.918  74.593
 1\1\GINC-GEOFFH-DESKTOP\SP\RB3LYP\6-31G(d)\C2H4S3\GHUTCHIS\27-Jul-2016
 \0\\#t B3LYP/6-31G* Polar\\trithiolane.g09\\0,1\S,0,-1.71956,-0.00008,
 -0.00009\S,0,1.13397,0.99623,0.32378\S,0,1.13395,-0.99624,-0.32388\C,0
 ,-0.51264,1.34934,-0.3893\C,0,-0.51251,-1.34919,0.38961\H,0,-0.43862,1
 .46792,-1.47144\H,0,-0.87301,2.27578,0.06671\H,0,-0.43822,-1.4673,1.47
 178\H,0,-0.87299,-2.27583,-0.06589\\Version=EM64M-G09RevA.02\State=1-A
 \HF=-1273.1786246\RMSD=4.242e-09\Dipole=-0.2293987,0.0000554,0.0002286
 \Polar=75.4981402,0.000165,75.9992882,0.0000231,1.5200913,46.7891892\H

 Normal termination of Gaussian 09 at Wed Jul 27 17:00:38 2016.
