                               Psi4 1.2.1 release

  ==> Input File <==

--------------------------------------------------------------------------
molecule {
  0 1
  C     1.000000000  1.000000000  1.000000000
  H     0.367458361  0.367458361  0.367458361
  H     1.632541639  1.632541639  0.367458361
  H     0.367458361  1.632541639  1.632541639
  H     1.632541639  0.367458361  1.632541639
}

set basis 6-311G
set reference rhf
set print_basis true
set print_MOs true
optimize('scf')
frequency('scf')

--------------------------------------------------------------------------

    Molecular point group: c2v
  Charge       = 0
  Multiplicity = 1
  Basis Set: 6-311G
    Blend: 6-311G
  Basis Set: (6-311G AUX)
    Blend: CC-PVTZ-JKFIT
  @DF-RHF Final Energy:   -40.18759088519479
    Total Energy =                        -40.1875908851947869
    Molecular point group: c2v
  Basis Set: 6-311G
    Blend: 6-311G
  Basis Set: (6-311G AUX)
    Blend: CC-PVTZ-JKFIT
  Basis Set: 6-311G
    Blend: 6-311G
  Basis Set: (6-311G AUX)
    Blend: CC-PVTZ-JKFIT
  @DF-RHF Final Energy:   -40.18819147183882
    Total Energy =                        -40.1881914718388202
  Basis Set: 6-311G
    Blend: 6-311G
  Basis Set: (6-311G AUX)
    Blend: CC-PVTZ-JKFIT
  Basis Set: 6-311G
    Blend: 6-311G
  @DF-RHF Final Energy:   -40.18819353102411
    Total Energy =                        -40.1881935310241118
  **** Optimization is complete! (in 3 steps) ****
    Final optimized geometry and variables:
  @DF-RHF Final Energy:   -40.18819353102379
    Total Energy =                        -40.1881935310237921
  Basis Set: 6-311G
    Blend: 6-311G
  Basis Set: (6-311G AUX)
    Blend: CC-PVTZ-JKFIT

  -Total Gradient:
     Atom            X                  Y                   Z
    ------   -----------------  -----------------  -----------------
       1        0.000000000000    -0.000000000000    -0.000000000121
       2       -0.000021100835    -0.000000000000    -0.000014920478
       3        0.000021100835     0.000000000000    -0.000014920478
       4       -0.000000000000     0.000021100917     0.000014920538
       5        0.000000000000    -0.000021100917     0.000014920538

  Charge       = 0
  Multiplicity = 1
  Basis Set: 6-311G
    Blend: 6-311G
  Basis Set: (6-311G AUX)
    Blend: CC-PVTZ-JKFIT

    Orbital Energies [Eh]
    ---------------------

    Doubly Occupied:

       1A1   -11.205678     2A1    -0.950974     1B2    -0.547099
       1B1    -0.547099     3A1    -0.547099

  @DF-RHF Final Energy:   -40.18819353102677

   => Energetics <=

    Nuclear Repulsion Energy =             13.5537345533165716
    One-Electron Energy =                 -79.8879585344730572
    Two-Electron Energy =                  26.1460304501297145
    Total Energy =                        -40.1881935310267693

  Dipole Moment: [D]
     X:     0.0000      Y:     0.0000      Z:     0.0000     Total:     0.0000

    Molecular point group: c2v
  Basis Set: 6-311G
    Blend: 6-311G
  Basis Set: (6-311G AUX)
    Blend: CC-PVTZ-JKFIT
  Basis Set: (6-311G AUX)
    Blend: CC-PVTZ-JKFIT
    Molecular point group: c2v

    Geometry (in Angstrom), charge = 0, multiplicity = 1:

       Center              X                  Y                   Z               Mass
    ------------   -----------------  -----------------  -----------------  -----------------
         C            0.000000000000    -0.000000000000     0.000000000002    12.000000000000
         H           -0.882210340989    -0.000000000000    -0.623816914580     1.007825032070
         H            0.882210340989     0.000000000000    -0.623816914580     1.007825032070
         H           -0.000000000000     0.882210341007     0.623816914569     1.007825032070
         H            0.000000000000    -0.882210341007     0.623816914569     1.007825032070

  Basis Set: 6-311G
    Blend: 6-311G
  Basis Set: (6-311G AUX)
    Blend: CC-PVTZ-JKFIT

  Vibration                       7                   8                   9
  Freq [cm^-1]                1501.9533           1501.9533           1501.9533
  Irrep
  Reduced mass [u]              1.1820              1.1820              1.1820
  Force const [mDyne/A]         1.5710              1.5710              1.5710

  Vibration                       10                  11                  12
  Freq [cm^-1]                1699.9431           1699.9431           3147.1517
  Irrep                                                                   A1
  Reduced mass [u]              1.0078              1.0078              1.0078
  Force const [mDyne/A]         1.7159              1.7159              5.8813

  Vibration                       13                  14                  15
  Freq [cm^-1]                3256.7973           3256.7973           3256.7973
  Irrep
  Reduced mass [u]              1.0991              1.0991              1.0991
  Force const [mDyne/A]         6.8684              6.8684              6.8684

  ==> Thermochemistry Components <==

  Entropy, S
    Electronic S            0.000 [cal/(mol K)]        0.000 [J/(mol K)]       0.00000000 [mEh/K] (multiplicity = 1)
    Translational S        34.261 [cal/(mol K)]      143.349 [J/(mol K)]       0.05459886 [mEh/K] (mol. weight = 16.0313 [u], P = 101325.00 [Pa])
    Rotational S           10.067 [cal/(mol K)]       42.122 [J/(mol K)]       0.01604346 [mEh/K] (symmetry no. = 12)
    Vibrational S           0.045 [cal/(mol K)]        0.189 [J/(mol K)]       0.00007180 [mEh/K]
  Total S                  44.374 [cal/(mol K)]      185.660 [J/(mol K)]       0.07071412 [mEh/K]
  Correction S              0.000 [cal/(mol K)]        0.000 [J/(mol K)]       0.00000000 [mEh/K]

  Constant volume heat capacity, Cv
    Electronic Cv           0.000 [cal/(mol K)]        0.000 [J/(mol K)]       0.00000000 [mEh/K]
    Translational Cv        2.981 [cal/(mol K)]       12.472 [J/(mol K)]       0.00475022 [mEh/K]
    Rotational Cv           2.981 [cal/(mol K)]       12.472 [J/(mol K)]       0.00475022 [mEh/K]
    Vibrational Cv          0.297 [cal/(mol K)]        1.242 [J/(mol K)]       0.00047294 [mEh/K]
  Total Cv                  6.258 [cal/(mol K)]       26.185 [J/(mol K)]       0.00997339 [mEh/K]
  Correction Cv             0.000 [cal/(mol K)]        0.000 [J/(mol K)]       0.00000000 [mEh/K]

  Constant pressure heat capacity, Cp
    Electronic Cp           0.000 [cal/(mol K)]        0.000 [J/(mol K)]       0.00000000 [mEh/K]
    Translational Cp        4.968 [cal/(mol K)]       20.786 [J/(mol K)]       0.00791704 [mEh/K]
    Rotational Cp           2.981 [cal/(mol K)]       12.472 [J/(mol K)]       0.00475022 [mEh/K]
    Vibrational Cp          0.297 [cal/(mol K)]        1.242 [J/(mol K)]       0.00047294 [mEh/K]
  Total Cp                  8.246 [cal/(mol K)]       34.500 [J/(mol K)]       0.01314020 [mEh/K]
  Correction Cp             0.000 [cal/(mol K)]        0.000 [J/(mol K)]       0.00000000 [mEh/K]

  ==> Thermochemistry Energy Analysis <==

  Raw electronic energy, E0
  Total E0, Electronic energy at well bottom at 0 [K]                  -40.18819353 [Eh]

  Zero-point energy, ZPE_vib = Sum_i nu_i / 2
    Electronic ZPE          0.000 [kcal/mol]        0.000 [kJ/mol]       0.00000000 [Eh]
    Translational ZPE       0.000 [kcal/mol]        0.000 [kJ/mol]       0.00000000 [Eh]
    Rotational ZPE          0.000 [kcal/mol]        0.000 [kJ/mol]       0.00000000 [Eh]
    Vibrational ZPE        29.768 [kcal/mol]      124.551 [kJ/mol]       0.04743894 [Eh]       10411.641 [cm^-1]
  Correction ZPE           29.768 [kcal/mol]      124.551 [kJ/mol]       0.04743894 [Eh]       10411.641 [cm^-1]
  Total ZPE, Electronic energy at 0 [K]                                -40.14075460 [Eh]

  Thermal Energy, E (includes ZPE)
    Electronic E            0.000 [kcal/mol]        0.000 [kJ/mol]       0.00000000 [Eh]
    Translational E         0.889 [kcal/mol]        3.718 [kJ/mol]       0.00141628 [Eh]
    Rotational E            0.889 [kcal/mol]        3.718 [kJ/mol]       0.00141628 [Eh]
    Vibrational E          29.780 [kcal/mol]      124.600 [kJ/mol]       0.04745781 [Eh]
  Correction E             31.558 [kcal/mol]      132.037 [kJ/mol]       0.05029036 [Eh]
  Total E, Electronic energy at  298.15 [K]                            -40.13790317 [Eh]

  Enthalpy, H_trans = E_trans + k_B * T
    Electronic H            0.000 [kcal/mol]        0.000 [kJ/mol]       0.00000000 [Eh]
    Translational H         1.481 [kcal/mol]        6.197 [kJ/mol]       0.00236046 [Eh]
    Rotational H            0.889 [kcal/mol]        3.718 [kJ/mol]       0.00141628 [Eh]
    Vibrational H          29.780 [kcal/mol]      124.600 [kJ/mol]       0.04745781 [Eh]
  Correction H             32.150 [kcal/mol]      134.516 [kJ/mol]       0.05123455 [Eh]
  Total H, Enthalpy at  298.15 [K]                                     -40.13695898 [Eh]

  Gibbs free energy, G = H - T * S
    Electronic G            0.000 [kcal/mol]        0.000 [kJ/mol]       0.00000000 [Eh]
    Translational G        -8.734 [kcal/mol]      -36.542 [kJ/mol]      -0.01391819 [Eh]
    Rotational G           -2.113 [kcal/mol]       -8.840 [kJ/mol]      -0.00336708 [Eh]
    Vibrational G          29.767 [kcal/mol]      124.544 [kJ/mol]       0.04743640 [Eh]
  Correction G             18.920 [kcal/mol]       79.162 [kJ/mol]       0.03015114 [Eh]
  Total G, Free enthalpy at  298.15 [K]                                -40.15804239 [Eh]

*** Psi4 exiting successfully. Buy a developer a beer!
