                         Program Version 3.0.2 -  RELEASE  -
|  1> !CHELPG OPT B3LYP 6-31G* TIGHTSCF
|  2>
|  3> *xyz 0 1
|  4>  C                 -2.37864069   -1.36893202    0.00000000
|  5>  H                 -2.02196785   -0.86453383   -0.87365150
|  6>  H                 -3.44864069   -1.36891883    0.00000000
|  7>  O                 -1.90199038   -2.71715473    0.00000000
|  8>  H                 -2.22033499   -3.16959416    0.78457331
|  9>  C                 -1.86529847   -0.64297574    1.25740497
| 10>  H                 -2.15595985    0.38606473    1.21878300
| 11>  H                 -2.28504015   -1.09967656    2.12926579
| 12>  H                 -0.79822266   -0.71091744    1.29781724
| 13> *
| 14>
| 15>                          ****END OF INPUT****
 Total Charge           Charge          ....    0
 Multiplicity           Mult            ....    1
 Number of Electrons    NEL             ....   26
FINAL SINGLE POINT ENERGY      -154.931661532517
FINAL SINGLE POINT ENERGY      -154.935450029227
FINAL SINGLE POINT ENERGY      -154.935805955914
FINAL SINGLE POINT ENERGY      -154.935868972740
FINAL SINGLE POINT ENERGY      -154.935881917368
FINAL SINGLE POINT ENERGY      -154.935884101220
                    ***********************HURRAY********************

CARTESIAN COORDINATES (ANGSTROEM)
---------------------------------
  C     -2.371274   -1.387888    0.023984
  H     -1.990539   -0.915754   -0.888028
  H     -3.472147   -1.342330   -0.023876
  O     -1.911935   -2.733868   -0.031507
  H     -2.243230   -3.187832    0.759293
  C     -1.867155   -0.639413    1.255894
  H     -2.194976    0.407243    1.242710
  H     -2.252300   -1.094383    2.178486
  H     -0.772540   -0.662413    1.297238

 Multiplicity           Mult            ....    1
 Number of Electrons    NEL             ....   26
 Basis Dimension        Dim             ....   54

ORBITAL ENERGIES
----------------

  NO   OCC          E(Eh)            E(eV)
   0   2.0000     -19.127560      -520.4874
   1   2.0000     -10.217880      -278.0427
   2   2.0000     -10.166512      -276.6449
   3   2.0000      -1.005768       -27.3683
   4   2.0000      -0.739356       -20.1189
   5   2.0000      -0.616985       -16.7890
   6   2.0000      -0.493095       -13.4178
   7   2.0000      -0.443811       -12.0767
   8   2.0000      -0.423192       -11.5156
   9   2.0000      -0.375125       -10.2077
  10   2.0000      -0.364113        -9.9080
  11   2.0000      -0.316714        -8.6182
  12   2.0000      -0.259097        -7.0504
  13   0.0000       0.080398         2.1877
  14   0.0000       0.127800         3.4776
  15   0.0000       0.148012         4.0276
  16   0.0000       0.160118         4.3570
  17   0.0000       0.170744         4.6462

MULLIKEN ATOMIC CHARGES
-----------------------
   0 C :   -0.009154
   1 H :    0.143815
   2 H :    0.120674
   3 O :   -0.623855
   4 H :    0.390706
   5 C :   -0.460827
   6 H :    0.143124
   7 H :    0.133319
   8 H :    0.162199
Sum of atomic charges:   -0.0000000

LOEWDIN ATOMIC CHARGES
----------------------
   0 C :   -0.107019
   1 H :    0.121636
   2 H :    0.100761
   3 O :   -0.417074
   4 H :    0.307005
   5 C :   -0.384972
   6 H :    0.128843
   7 H :    0.118744
   8 H :    0.132075

  Mayer bond orders larger than 0.1
B(  0-C ,  1-H ) :   0.9439 B(  0-C ,  2-H ) :   0.9350 B(  0-C ,  3-O ) :   0.9706
B(  0-C ,  5-C ) :   1.0101 B(  3-O ,  4-H ) :   0.7915 B(  5-C ,  6-H ) :   0.9412
B(  5-C ,  7-H ) :   0.9528 B(  5-C ,  8-H ) :   0.9480

FINAL SINGLE POINT ENERGY      -154.935884116181

DIPOLE MOMENT
-------------
                                X             Y             Z
Electronic contribution:      0.23586      -2.51866      -1.39201
Nuclear contribution   :     -0.57465       2.76488       1.89773
                        -----------------------------------------
Total Dipole Moment    :     -0.33880       0.24621       0.50572
                        -----------------------------------------
Magnitude (a.u.)       :      0.65662
Magnitude (Debye)      :      1.66900

                             ****ORCA TERMINATED NORMALLY****
TOTAL RUN TIME: 0 days 0 hours 1 minutes 17 seconds 41 msec
