                         Program Version 3.0.3 - RELEASE   -
|  1> ! rhf sto-3g nori verytightscf
|  2>
|  3> %elprop
|  4>  polar 1
|  5>  solver cg
|  6>  maxiter 1000
|  7>  tol 1e-8
|  8>  end
|  9>
| 10> * xyz 1 1
| 11> N     -0.0209628227    0.9565751060    0.6610766601
| 12> C      1.2586560147    0.3222453298    0.1903412502
| 13> C      2.1794770407   -0.0913074644    1.3834753307
| 14> O      3.1974755515    0.4952028547    1.6873348692
| 15> H      1.0403820586   -0.5767401627   -0.3957941783
| 16> C     -0.5146003504    1.7006516592   -0.5424344133
| 17> H     -0.9678141881    1.0191861594   -1.2659489293
| 18> H     -1.2649052911    2.4357407308   -0.2509621579
| 19> C      0.7596254123    2.3454659623   -1.1319967818
| 20> H      0.9111159694    3.3351054705   -0.7099541673
| 21> H      0.6835186423    2.4486432058   -2.2105798235
| 22> C      1.9141279511    1.3946288114   -0.7169994401
| 23> H      2.6821840835    1.9240837683   -0.1594109757
| 24> H      2.3852615978    0.9271672143   -1.5766751832
| 25> H     -0.6985265957    0.2009026482    0.8627438346
| 26> O      1.7857481099   -1.2118931751    2.1182221496
| 27> H      0.9643422115   -1.5558478499    1.6900619768
| 28> Li    -0.1610953954    2.1298797311    2.2552799795
| 29> *
| 30>
| 31>                          ****END OF INPUT****

CARTESIAN COORDINATES (ANGSTROEM)
---------------------------------
  N     -0.020963    0.956575    0.661077
  C      1.258656    0.322245    0.190341
  C      2.179477   -0.091307    1.383475
  O      3.197476    0.495203    1.687335
  H      1.040382   -0.576740   -0.395794
  C     -0.514600    1.700652   -0.542434
  H     -0.967814    1.019186   -1.265949
  H     -1.264905    2.435741   -0.250962
  C      0.759625    2.345466   -1.131997
  H      0.911116    3.335105   -0.709954
  H      0.683519    2.448643   -2.210580
  C      1.914128    1.394629   -0.716999
  H      2.682184    1.924084   -0.159411
  H      2.385262    0.927167   -1.576675
  H     -0.698527    0.200903    0.862744
  O      1.785748   -1.211893    2.118222
  H      0.964342   -1.555848    1.690062
  Li    -0.161095    2.129880    2.255280

 Total Charge           Charge          ....    1
 Multiplicity           Mult            ....    1
 Number of Electrons    NEL             ....   64
 Basis Dimension        Dim             ....   54

ORBITAL ENERGIES
----------------

  NO   OCC          E(Eh)            E(eV)
   0   2.0000     -20.455514      -556.6228
   1   2.0000     -20.434521      -556.0516
   2   2.0000     -15.610518      -424.7838
   3   2.0000     -11.323783      -308.1358
   4   2.0000     -11.279088      -306.9196
   5   2.0000     -11.271193      -306.7047
   6   2.0000     -11.213316      -305.1298
   7   2.0000     -11.209527      -305.0267
   8   2.0000      -2.618767       -71.2603
   9   2.0000      -1.518709       -41.3262
  10   2.0000      -1.427557       -38.8458
  11   2.0000      -1.395913       -37.9847
  12   2.0000      -1.171766       -31.8854
  13   2.0000      -1.138898       -30.9910
  14   2.0000      -0.985111       -26.8062
  15   2.0000      -0.936243       -25.4765
  16   2.0000      -0.872913       -23.7532
  17   2.0000      -0.853592       -23.2274
  18   2.0000      -0.829093       -22.5608
  19   2.0000      -0.767941       -20.8967
  20   2.0000      -0.725545       -19.7431
  21   2.0000      -0.714911       -19.4537
  22   2.0000      -0.689727       -18.7684
  23   2.0000      -0.660590       -17.9756
  24   2.0000      -0.659919       -17.9573
  25   2.0000      -0.641031       -17.4433
  26   2.0000      -0.618374       -16.8268
  27   2.0000      -0.599665       -16.3177
  28   2.0000      -0.592376       -16.1194
  29   2.0000      -0.586712       -15.9652
  30   2.0000      -0.499791       -13.6000
  31   2.0000      -0.487082       -13.2542
  32   0.0000      -0.106894        -2.9087
  33   0.0000      -0.026541        -0.7222
  34   0.0000      -0.021623        -0.5884
  35   0.0000       0.118311         3.2194
  36   0.0000       0.174776         4.7559

MULLIKEN ATOMIC CHARGES
-----------------------
   0 N :   -0.315296
   1 C :    0.021581
   2 C :    0.301714
   3 O :   -0.207342
   4 H :    0.087318
   5 C :   -0.019060
   6 H :    0.092389
   7 H :    0.079127
   8 C :   -0.106233
   9 H :    0.074327
  10 H :    0.096820
  11 C :   -0.110351
  12 H :    0.094427
  13 H :    0.095078
  14 H :    0.206020
  15 O :   -0.265111
  16 H :    0.201317
  17 Li:    0.673277
Sum of atomic charges:    1.0000000

LOEWDIN ATOMIC CHARGES
----------------------
   0 N :   -0.084486
   1 C :    0.044709
   2 C :    0.217485
   3 O :   -0.147220
   4 H :    0.046752
   5 C :    0.046363
   6 H :    0.050965
   7 H :    0.052396
   8 C :   -0.037847
   9 H :    0.041778
  10 H :    0.056974
  11 C :   -0.042760
  12 H :    0.055735
  13 H :    0.055474
  14 H :    0.160209
  15 O :   -0.173659
  16 H :    0.145065
  17 Li:    0.512068

  Mayer bond orders larger than 0.1
B(  0-N ,  1-C ) :   0.9168 B(  0-N ,  5-C ) :   0.9220 B(  0-N , 14-H ) :   0.9289
B(  0-N , 17-Li) :   0.4895 B(  1-C ,  2-C ) :   0.9121 B(  1-C ,  4-H ) :   0.9572
B(  1-C , 11-C ) :   0.9784 B(  2-C ,  3-O ) :   1.9406 B(  2-C , 15-O ) :   1.0015
B(  3-O , 15-O ) :   0.1403 B(  5-C ,  6-H ) :   0.9658 B(  5-C ,  7-H ) :   0.9687
B(  5-C ,  8-C ) :   0.9880 B(  8-C ,  9-H ) :   0.9742 B(  8-C , 10-H ) :   0.9724
B(  8-C , 11-C ) :   0.9837 B( 11-C , 12-H ) :   0.9686 B( 11-C , 13-H ) :   0.9731
B( 15-O , 16-H ) :   0.9304

FINAL SINGLE POINT ENERGY      -400.948567289307

DIPOLE MOMENT
-------------
                                X             Y             Z
Electronic contribution:      0.45408      -0.10550      11.17015
Nuclear contribution   :     -3.81887       1.72808     -10.17551
                        -----------------------------------------
Total Dipole Moment    :     -3.36478       1.62258       0.99464
                        -----------------------------------------
Magnitude (a.u.)       :      3.86573
Magnitude (Debye)      :      9.82590

                             ****ORCA TERMINATED NORMALLY****
TOTAL RUN TIME: 0 days 0 hours 1 minutes 0 seconds 42 msec
