                         Program Version 3.0.3 - RELEASE   -
|  1> #
|  2> # My first ORCA calculation :-)
|  3> #
|  4> ! HF SVP
|  5> %pal nprocs 48 # any number (positive integer)
|  6> end
|  7> %MaxCore 4000 				#Maximum memory used during the calculation in MB. This limit applies per processing core.
|  8>
|  9> %scf
| 10> SCFMode Conventional	# Direct is default, other choices: Conventional(conv), SemiDirect. Advantage of conventional: "The storing of the two-electron integrals on disk or in memory if possible leads to large computational savings."
| 11> KeepInts true 			# Keep integrals on disk
| 12> #ReadInts true 			# Read integrals from disk
| 13> IntName "Orca_test" # Name of the integral files without extension
| 14> MaxIter 1000 			# Max. no. of SCF iterations
| 15> MaxDisk 90000000 		# Max. amount of disk for 2 el. ints. (MB)
| 16> MaxIntMem 96000			# Max. amount of RAM for 2 el. ints. (MB)
| 17> end
| 18>
| 19> %output
| 20>     PrintLevel maxi
| 21>  end #output
| 22>
| 23> * xyz 0 1
| 24>  C 0.0 0.0 0.0
| 25>  O 0.0 0.0 1.13
| 26> *                           ****END OF INPUT****

CARTESIAN COORDINATES (ANGSTROEM)
---------------------------------
  C      0.000000    0.000000    0.000000
  O      0.000000    0.000000    1.130000

 Total Charge           Charge          ....    0
 Multiplicity           Mult            ....    1
 Number of Electrons    NEL             ....   14
 Basis Dimension        Dim             ....   28

ORBITAL ENERGIES
----------------

  NO   OCC          E(Eh)            E(eV)
   0   2.0000     -20.667180      -562.3826
   1   2.0000     -11.369622      -309.3831
   2   2.0000      -1.507995       -41.0346
   3   2.0000      -0.797723       -21.7071
   4   2.0000      -0.642243       -17.4763
   5   2.0000      -0.642243       -17.4763
   6   2.0000      -0.551183       -14.9984
   7   0.0000       0.146703         3.9920
   8   0.0000       0.146703         3.9920
   9   0.0000       0.354122         9.6361
  10   0.0000       0.561652        15.2833
  11   0.0000       0.670058        18.2332

------------------
MOLECULAR ORBITALS
------------------
                      0         1         2         3         4         5
                 -20.66718 -11.36962  -1.50800  -0.79772  -0.64224  -0.64224
                   2.00000   2.00000   2.00000   2.00000   2.00000   2.00000
                  --------  --------  --------  --------  --------  --------
  0C   1s         0.000299 -0.991709 -0.144789  0.162638 -0.000000 -0.000000
  0C   2s         0.000221 -0.031434  0.272743 -0.365349 -0.000000 -0.000000
  0C   3s         0.007311  0.005805  0.014689 -0.073130 -0.000000  0.000000
  0C   1pz       -0.001510 -0.004482  0.217429 -0.137663  0.000000  0.000000
  0C   1px        0.000000  0.000000 -0.000000  0.000000 -0.076350 -0.285335
  0C   1py       -0.000000  0.000000 -0.000000  0.000000  0.285335 -0.076350
  0C   2pz        0.005195 -0.002274  0.003498  0.030842  0.000000  0.000000
  0C   2px        0.000000 -0.000000 -0.000000 -0.000000 -0.031635 -0.118227
  0C   2py       -0.000000  0.000000 -0.000000  0.000000  0.118227 -0.031635
  0C   1dz2      -0.001665 -0.002226  0.038316 -0.018974  0.000000 -0.000000
  0C   1dxz      -0.000000 -0.000000 -0.000000  0.000000 -0.013622 -0.050908
  0C   1dyz      -0.000000  0.000000 -0.000000  0.000000  0.050908 -0.013622
  0C   1dx2y2    -0.000000 -0.000000  0.000000 -0.000000  0.000000  0.000000
  0C   1dxy       0.000000 -0.000000  0.000000 -0.000000 -0.000000  0.000000
  1O   1s        -0.990280 -0.000768  0.265494  0.145617 -0.000000 -0.000000
  1O   2s         0.034735 -0.000031  0.522760  0.313292 -0.000000 -0.000000
  1O   3s        -0.019768  0.006263  0.262651  0.347251 -0.000000 -0.000000
  1O   1pz       -0.002949  0.000105 -0.167655  0.503549 -0.000000  0.000000
  1O   1px       -0.000000 -0.000000  0.000000  0.000000 -0.142229 -0.531537
  1O   1py       -0.000000  0.000000  0.000000  0.000000  0.531537 -0.142229
  1O   2pz        0.003754 -0.004909 -0.025905  0.249046 -0.000000  0.000000
  1O   2px       -0.000000  0.000000 -0.000000  0.000000 -0.095705 -0.357667
  1O   2py        0.000000 -0.000000  0.000000  0.000000  0.357667 -0.095705
  1O   1dz2       0.000867 -0.000506  0.019357 -0.023575  0.000000 -0.000000
  1O   1dxz       0.000000 -0.000000  0.000000 -0.000000  0.008335  0.031151
  1O   1dyz      -0.000000  0.000000  0.000000 -0.000000 -0.031151  0.008335
  1O   1dx2y2    -0.000000 -0.000000 -0.000000 -0.000000  0.000000  0.000000
  1O   1dxy      -0.000000  0.000000  0.000000 -0.000000 -0.000000  0.000000
                      6         7         8         9        10        11
                  -0.55118   0.14670   0.14670   0.35412   0.56165   0.67006
                   2.00000   0.00000   0.00000   0.00000   0.00000   0.00000
                  --------  --------  --------  --------  --------  --------
  0C   1s        -0.185338 -0.000000  0.000000 -0.043650  0.268868 -0.000000
  0C   2s         0.410601  0.000000 -0.000000  0.277066 -1.494569  0.000000
  0C   3s         0.474778  0.000000 -0.000000 -2.031268  1.105472 -0.000000
  0C   1pz       -0.455004 -0.000000  0.000000 -0.136647  0.380371 -0.000000
  0C   1px        0.000000  0.016159  0.446748 -0.000000  0.000000  1.022512
  0C   1py        0.000000 -0.446748  0.016159 -0.000000  0.000000 -0.164176
  0C   2pz       -0.163553 -0.000000  0.000000 -1.733791 -0.810850  0.000000
  0C   2px        0.000000  0.027688  0.765514 -0.000000 -0.000000 -1.012418
  0C   2py        0.000000 -0.765514  0.027688 -0.000000 -0.000000  0.162555
  0C   1dz2      -0.031323 -0.000000  0.000000 -0.004797  0.025824  0.000000
  0C   1dxz       0.000000 -0.000456 -0.012598  0.000000 -0.000000  0.031748
  0C   1dyz       0.000000  0.012598 -0.000456 -0.000000 -0.000000 -0.005097
  0C   1dx2y2     0.000000 -0.000000 -0.000000 -0.000000  0.000000 -0.000000
  0C   1dxy      -0.000000  0.000000 -0.000000 -0.000000  0.000000 -0.000000
  1O   1s        -0.021987 -0.000000  0.000000  0.095111  0.025531  0.000000
  1O   2s        -0.050502 -0.000000  0.000000  0.099035  0.052846  0.000000
  1O   3s        -0.003360 -0.000000  0.000000  2.034022  0.324384 -0.000000
  1O   1pz        0.235070  0.000000 -0.000000 -0.038647 -0.104363 -0.000000
  1O   1px       -0.000000 -0.012587 -0.348001 -0.000000 -0.000000 -0.003827
  1O   1py        0.000000  0.348001 -0.012587 -0.000000 -0.000000  0.000614
  1O   2pz        0.124976  0.000000 -0.000000 -0.564089 -0.174097 -0.000000
  1O   2px       -0.000000 -0.017986 -0.497272 -0.000000 -0.000000  0.020865
  1O   2py       -0.000000  0.497272 -0.017986 -0.000000 -0.000000 -0.003350
  1O   1dz2      -0.007875 -0.000000  0.000000  0.031440 -0.004734 -0.000000
  1O   1dxz      -0.000000 -0.000353 -0.009759  0.000000 -0.000000 -0.049184
  1O   1dyz      -0.000000  0.009759 -0.000353  0.000000 -0.000000  0.007897
  1O   1dx2y2     0.000000  0.000000  0.000000 -0.000000 -0.000000 -0.000000
  1O   1dxy      -0.000000 -0.000000  0.000000 -0.000000  0.000000 -0.000000
                     12        13        14        15        16        17
                   0.67006   0.98914   1.13160   1.23834   1.23834   1.49840
                   0.00000   0.00000   0.00000   0.00000   0.00000   0.00000
                  --------  --------  --------  --------  --------  --------
  0C   1s        -0.000000  0.146616  0.078029  0.000000 -0.000000  0.030164
  0C   2s         0.000000 -1.213815 -0.016636 -0.000000 -0.000000 -0.870128
  0C   3s        -0.000000 -0.090074  0.259693  0.000000 -0.000000 -2.037253
  0C   1pz       -0.000000 -0.969550 -0.498523 -0.000000 -0.000000 -0.320185
  0C   1px        0.164176 -0.000000 -0.000000 -0.003607 -0.065277  0.000000
  0C   1py        1.022512 -0.000000 -0.000000 -0.065277  0.003607  0.000000
  0C   2pz        0.000000  0.196113  0.334772  0.000000 -0.000000 -1.584742
  0C   2px       -0.162555  0.000000  0.000000  0.028806  0.521314 -0.000000
  0C   2py       -1.012418  0.000000 -0.000000  0.521314 -0.028806  0.000000
  0C   1dz2       0.000000  0.035550  0.308072  0.000000 -0.000000 -0.251989
  0C   1dxz       0.005097  0.000000  0.000000  0.005711  0.103351 -0.000000
  0C   1dyz       0.031748 -0.000000  0.000000  0.103351 -0.005711 -0.000000
  0C   1dx2y2    -0.000000  0.000000 -0.000000 -0.000000 -0.000000  0.000000
  0C   1dxy      -0.000000 -0.000000 -0.000000  0.000000 -0.000000 -0.000000
  1O   1s         0.000000  0.143465 -0.027669  0.000000 -0.000000 -0.287801
  1O   2s         0.000000  0.451091 -0.207937 -0.000000 -0.000000 -1.968251
  1O   3s        -0.000000  0.434548  0.018534  0.000000  0.000000  4.587985
  1O   1pz       -0.000000  0.100006 -0.837089 -0.000000 -0.000000  0.071762
  1O   1px       -0.000614  0.000000 -0.000000  0.052690  0.953537 -0.000000
  1O   1py       -0.003827 -0.000000 -0.000000  0.953537 -0.052690  0.000000
  1O   2pz       -0.000000 -1.411802  0.763130  0.000000 -0.000000 -1.474744
  1O   2px        0.003350 -0.000000 -0.000000 -0.071357 -1.291365  0.000000
  1O   2py        0.020865  0.000000  0.000000 -1.291365  0.071357 -0.000000
  1O   1dz2      -0.000000 -0.093620 -0.095205 -0.000000  0.000000 -0.040397
  1O   1dxz      -0.007897  0.000000  0.000000 -0.001743 -0.031545  0.000000
  1O   1dyz      -0.049184  0.000000  0.000000 -0.031545  0.001743 -0.000000
  1O   1dx2y2     0.000000 -0.000000 -0.000000  0.000000 -0.000000 -0.000000
  1O   1dxy       0.000000 -0.000000 -0.000000  0.000000 -0.000000 -0.000000
                     18        19        20        21        22        23
                   1.88309   1.88309   1.96462   1.96462   2.76798   2.96203
                   0.00000   0.00000   0.00000   0.00000   0.00000   0.00000
                  --------  --------  --------  --------  --------  --------
  0C   1s        -0.000000 -0.000000  0.000000  0.000000 -0.072234  0.000000
  0C   2s        -0.000000 -0.000000 -0.000000 -0.000000  0.031962 -0.000000
  0C   3s        -0.000000 -0.000000 -0.000000  0.000000  0.097636  0.000000
  0C   1pz       -0.000000 -0.000000  0.000000  0.000000  0.289484 -0.000000
  0C   1px       -0.000000 -0.000000 -0.028857 -0.115977 -0.000000  0.000000
  0C   1py       -0.000000 -0.000000 -0.115977  0.028857 -0.000000  0.000000
  0C   2pz       -0.000000 -0.000000  0.000000 -0.000000  0.207485 -0.000000
  0C   2px       -0.000000  0.000000  0.044705  0.179674  0.000000  0.000000
  0C   2py        0.000000  0.000000  0.179674 -0.044705 -0.000000 -0.000000
  0C   1dz2      -0.000000 -0.000000 -0.000000 -0.000000  1.143234 -0.000000
  0C   1dxz      -0.000000  0.000000  0.218430  0.877884  0.000000  0.000000
  0C   1dyz       0.000000  0.000000  0.877884 -0.218430 -0.000000  0.000000
  0C   1dx2y2    -0.466327 -0.845033  0.000000 -0.000000  0.000000  0.275158
  0C   1dxy      -0.845033  0.466327 -0.000000 -0.000000  0.000000  0.061248
  1O   1s        -0.000000 -0.000000  0.000000  0.000000 -0.143195  0.000000
  1O   2s        -0.000000 -0.000000  0.000000 -0.000000 -0.909602  0.000000
  1O   3s         0.000000  0.000000 -0.000000  0.000000  0.216530 -0.000000
  1O   1pz        0.000000 -0.000000  0.000000 -0.000000  0.788192 -0.000000
  1O   1px        0.000000 -0.000000 -0.054847 -0.220435 -0.000000 -0.000000
  1O   1py       -0.000000 -0.000000 -0.220435  0.054847 -0.000000  0.000000
  1O   2pz       -0.000000 -0.000000 -0.000000 -0.000000 -0.377530  0.000000
  1O   2px        0.000000 -0.000000 -0.045125 -0.181361  0.000000 -0.000000
  1O   2py       -0.000000 -0.000000 -0.181361  0.045125  0.000000 -0.000000
  1O   1dz2      -0.000000 -0.000000 -0.000000  0.000000  0.128695  0.000000
  1O   1dxz       0.000000 -0.000000 -0.065919 -0.264931 -0.000000  0.000000
  1O   1dyz      -0.000000 -0.000000 -0.264931  0.065919 -0.000000  0.000000
  1O   1dx2y2    -0.086803 -0.157296  0.000000 -0.000000 -0.000000 -0.965673
  1O   1dxy      -0.157296  0.086803 -0.000000 -0.000000 -0.000000 -0.214950
                     24        25        26        27
                   2.96203   3.55379   3.55379   4.00400
                   0.00000   0.00000   0.00000   0.00000
                  --------  --------  --------  --------
  0C   1s         0.000000  0.000000  0.000000  0.155347
  0C   2s         0.000000 -0.000000 -0.000000 -1.554814
  0C   3s        -0.000000  0.000000 -0.000000 -0.664870
  0C   1pz       -0.000000  0.000000 -0.000000 -1.145769
  0C   1px        0.000000  0.258781  0.082306  0.000000
  0C   1py        0.000000  0.082306 -0.258781  0.000000
  0C   2pz       -0.000000  0.000000 -0.000000 -0.553430
  0C   2px       -0.000000  0.158919  0.050545 -0.000000
  0C   2py       -0.000000  0.050545 -0.158919  0.000000
  0C   1dz2      -0.000000  0.000000 -0.000000 -0.643627
  0C   1dxz      -0.000000  0.689429  0.219275 -0.000000
  0C   1dyz       0.000000  0.219275 -0.689429  0.000000
  0C   1dx2y2    -0.061248  0.000000  0.000000 -0.000000
  0C   1dxy       0.275158  0.000000  0.000000 -0.000000
  1O   1s         0.000000 -0.000000  0.000000  0.029396
  1O   2s         0.000000 -0.000000  0.000000 -0.106289
  1O   3s        -0.000000 -0.000000  0.000000  2.093054
  1O   1pz       -0.000000  0.000000 -0.000000 -0.407794
  1O   1px       -0.000000 -0.032813 -0.010436 -0.000000
  1O   1py       -0.000000 -0.010436  0.032813 -0.000000
  1O   2pz        0.000000 -0.000000 -0.000000 -1.216411
  1O   2px        0.000000 -0.344761 -0.109653  0.000000
  1O   2py       -0.000000 -0.109653  0.344761 -0.000000
  1O   1dz2      -0.000000  0.000000  0.000000  1.278342
  1O   1dxz      -0.000000  1.031980  0.328225 -0.000000
  1O   1dyz       0.000000  0.328225 -1.031980  0.000000
  1O   1dx2y2     0.214950  0.000000 -0.000000  0.000000
  1O   1dxy      -0.965673  0.000000 -0.000000  0.000000

MULLIKEN ATOMIC CHARGES
-----------------------
   0 C :    0.170696
   1 O :   -0.170696
Sum of atomic charges:    0.0000000

LOEWDIN ATOMIC CHARGES
----------------------
   0 C :    0.035691
   1 O :   -0.035691

  Mayer bond orders larger than 0.1
B(  0-C ,  1-O ) :   2.4219

FINAL SINGLE POINT ENERGY      -112.645712458521

DIPOLE MOMENT
-------------
                                X             Y             Z
Electronic contribution:     -0.00000      -0.00000      -0.10009
Nuclear contribution   :      0.00000       0.00000       0.00717
                        -----------------------------------------
Total Dipole Moment    :     -0.00000      -0.00000      -0.09292
                        -----------------------------------------
Magnitude (a.u.)       :      0.09292
Magnitude (Debye)      :      0.23619

                             ****ORCA TERMINATED NORMALLY****
TOTAL RUN TIME: 0 days 0 hours 0 minutes 40 seconds 742 msec
