                         Program Version 3.0.3 - RELEASE   -
|  1> ! b3lyp 6-31g* nori noautostart
|  2>
|  3> %elprop
|  4>  polar 1
|  5>  end
|  6>
|  7> * xyz 0 1
|  8> S          -1.71956        -0.00008        -0.00009
|  9> S           1.13397         0.99623         0.32378
| 10> S           1.13395        -0.99624        -0.32388
| 11> C          -0.51264         1.34934        -0.38930
| 12> C          -0.51251        -1.34919         0.38961
| 13> H          -0.43862         1.46792        -1.47144
| 14> H          -0.87301         2.27578         0.06671
| 15> H          -0.43822        -1.46730         1.47178
| 16> H          -0.87299        -2.27583        -0.06589
| 17> *
| 18>
| 19>                          ****END OF INPUT****

CARTESIAN COORDINATES (ANGSTROEM)
---------------------------------
  S     -1.719560   -0.000080   -0.000090
  S      1.133970    0.996230    0.323780
  S      1.133950   -0.996240   -0.323880
  C     -0.512640    1.349340   -0.389300
  C     -0.512510   -1.349190    0.389610
  H     -0.438620    1.467920   -1.471440
  H     -0.873010    2.275780    0.066710
  H     -0.438220   -1.467300    1.471780
  H     -0.872990   -2.275830   -0.065890

 Total Charge           Charge          ....    0
 Multiplicity           Mult            ....    1
 Number of Electrons    NEL             ....   64
 Basis Dimension        Dim             ....   90

ORBITAL ENERGIES
----------------

  NO   OCC          E(Eh)            E(eV)
   0   2.0000     -88.886963     -2418.7372
   1   2.0000     -88.886942     -2418.7367
   2   2.0000     -88.867556     -2418.2091
   3   2.0000     -10.246262      -278.8150
   4   2.0000     -10.246247      -278.8146
   5   2.0000      -7.963719      -216.7038
   6   2.0000      -7.963697      -216.7032
   7   2.0000      -7.943836      -216.1628
   8   2.0000      -5.928384      -161.3195
   9   2.0000      -5.928293      -161.3171
  10   2.0000      -5.924617      -161.2170
  11   2.0000      -5.924582      -161.2161
  12   2.0000      -5.916391      -160.9932
  13   2.0000      -5.916383      -160.9930
  14   2.0000      -5.908538      -160.7795
  15   2.0000      -5.904763      -160.6768
  16   2.0000      -5.896773      -160.4593
  17   2.0000      -0.860797       -23.4235
  18   2.0000      -0.761823       -20.7303
  19   2.0000      -0.750690       -20.4273
  20   2.0000      -0.605528       -16.4773
  21   2.0000      -0.605139       -16.4667
  22   2.0000      -0.471881       -12.8405
  23   2.0000      -0.459468       -12.5027
  24   2.0000      -0.442949       -12.0533
  25   2.0000      -0.399338       -10.8665
  26   2.0000      -0.371571       -10.1110
  27   2.0000      -0.371096       -10.0980
  28   2.0000      -0.316154        -8.6030
  29   2.0000      -0.283353        -7.7104
  30   2.0000      -0.235410        -6.4058
  31   2.0000      -0.228501        -6.2178
  32   0.0000      -0.048342        -1.3155
  33   0.0000       0.004349         0.1183
  34   0.0000       0.017106         0.4655
  35   0.0000       0.049913         1.3582
  36   0.0000       0.084345         2.2951

MULLIKEN ATOMIC CHARGES
-----------------------
   0 S :    0.143850
   1 S :    0.064007
   2 S :    0.064008
   3 C :   -0.576962
   4 C :   -0.576969
   5 H :    0.225216
   6 H :    0.215813
   7 H :    0.225226
   8 H :    0.215811
Sum of atomic charges:   -0.0000000

LOEWDIN ATOMIC CHARGES
----------------------
   0 S :    0.111233
   1 S :    0.070805
   2 S :    0.070810
   3 C :   -0.444583
   4 C :   -0.444586
   5 H :    0.153378
   6 H :    0.164780
   7 H :    0.153378
   8 H :    0.164786

  Mayer bond orders larger than 0.1
B(  0-S ,  3-C ) :   0.9550 B(  0-S ,  4-C ) :   0.9551 B(  1-S ,  2-S ) :   0.9573
B(  1-S ,  3-C ) :   0.9786 B(  2-S ,  4-C ) :   0.9786 B(  3-C ,  5-H ) :   0.9052
B(  3-C ,  6-H ) :   0.9102 B(  4-C ,  7-H ) :   0.9051 B(  4-C ,  8-H ) :   0.9102

FINAL SINGLE POINT ENERGY     -1272.925477764814

DIPOLE MOMENT
-------------
                                X             Y             Z
Electronic contribution:      2.32315      -0.00050      -0.00090
Nuclear contribution   :     -2.55398       0.00055       0.00113
                        -----------------------------------------
Total Dipole Moment    :     -0.23082       0.00006       0.00023
                        -----------------------------------------
Magnitude (a.u.)       :      0.23082
Magnitude (Debye)      :      0.58670

                             ****ORCA TERMINATED NORMALLY****
TOTAL RUN TIME: 0 days 0 hours 1 minutes 3 seconds 290 msec
