 Q-Chem 4.2, Q-Chem, Inc., Pleasanton, CA (2014).
 Q-Chem 4.2.2 for Intel X86 EM64T Linux

User input:
--------------------------------------------------------------
$rem
 method = hf
 basis = aug-pc-2
 basis_lin_dep_thresh = 1
 print_general_basis = true
 print_orbitals = 9999
$end

$molecule
0 1
C      0.0000000000   -0.0003162467   -0.0000048217
O      0.0000000000    0.0001159898   -1.1691641452
O      0.0000000000    0.0001159547    1.1691546879
$end
--------------------------------------------------------------

             Standard Nuclear Orientation (Angstroms)
    I     Atom           X                Y                Z
 ----------------------------------------------------------------
    1      C       0.0000000000    -0.0003143411    -0.0000000677
    2      O      -0.0000000000     0.0001178779    -1.1691593912
    3      O       0.0000000000     0.0001178779     1.1691594419
 ----------------------------------------------------------------

    9    -187.3734064165      4.41E-06 Convergence criterion met
 Total energy in the final basis set = -187.3734064165

                    Orbital Energies (a.u.)
 --------------------------------------------------------------

 Alpha MOs
 -- Occupied --
-20.655 -20.647 -11.451  -1.527  -1.471  -0.809  -0.750  -0.724
 -0.724  -0.554  -0.554

          Ground-State Mulliken Net Atomic Charges

     Atom                 Charge (a.u.)
  ----------------------------------------
      1 C                     0.066588
      2 O                    -0.033299
      3 O                    -0.033289
  ----------------------------------------
  Sum of atomic charges =    -0.000000

                    Cartesian Multipole Moments
 -----------------------------------------------------------------
    Charge (ESU x 10^10)
                -0.0000
    Dipole Moment (Debye)
         X      -0.0000      Y      -0.0015      Z       0.0000
       Tot       0.0015
    Quadrupole Moments (Debye-Ang)
        XX     -15.2259     XY      -0.0000     YY     -15.2262
        XZ      -0.0000     YZ       0.0000     ZZ     -20.1080

 Total job time:  5.73s(wall), 22.84s(cpu)
        *  Thank you very much for using Q-Chem.  Have a nice day.  *
