 Q-Chem 4.2, Q-Chem, Inc., Pleasanton, CA (2014).
 Q-Chem 4.2.0 for Intel X86 EM64T Linux

User input:
--------------------------------------------------------------
$comment
 MoOCl4, single point, with pseudopotentials, RB3LYP/{LanL2MB/6-31G(d)}
$end

$rem
 method = b3lyp
 basis = mixed
 ecp = gen
 scf_guess = gwh
 scf_algorithm = rca_diis
 scf_convergence = 9
 thresh = 14
 max_scf_cycles = 200
 print_general_basis = true
 iprint = 100
$end

$molecule
 -2 1
Mo     0.000325    -0.000325     0.051810
 O     0.000206    -0.000206     1.741504
Cl     1.711727    -1.711727    -0.659846
Cl    -1.710992    -1.711738    -0.660079
Cl    -1.711004     1.711004    -0.660311
Cl     1.711738     1.710992    -0.660079
$end

$basis
 O 2
 6-31g(d)
 ****
 Mo 1
 lanl2dz
 ****
 Cl 3
 lanl2dz
 ****
 Cl 4
 6-31g(d)
 ****
 Cl 5
 6-31g(d)
 ****
 Cl 6
 6-31g(d)
 ****
$end

$ecp
 Mo 1
 lanl2dz
 ****
 Cl 3
 lanl2dz
 ****
$end
--------------------------------------------------------------

             Standard Nuclear Orientation (Angstroms)
    I     Atom           X                Y                Z
 ----------------------------------------------------------------
    1      Mo      0.0003250000    -0.0003250000     0.0518100000
    2      O       0.0002060000    -0.0002060000     1.7415040000
    3      Cl      1.7117270000    -1.7117270000    -0.6598460000
    4      Cl     -1.7109920000    -1.7117380000    -0.6600790000
    5      Cl     -1.7110040000     1.7110040000    -0.6603110000
    6      Cl      1.7117380000     1.7109920000    -0.6600790000
 ----------------------------------------------------------------

   38    -202.4468962699      2.29E-10 Convergence criterion met
 Total energy in the final basis set = -202.4468962699

                    Orbital Energies (a.u.)
 --------------------------------------------------------------

 Alpha MOs
 -- Occupied --
-18.899  -2.235  -1.300  -1.238  -1.238  -0.634  -0.458  -0.447
 -0.446  -0.444  -0.117  -0.097  -0.097  -0.062  -0.047  -0.039
 -0.032  -0.029  -0.014  -0.000   0.004   0.012   0.014   0.016
  0.034   0.105

          Ground-State Mulliken Net Atomic Charges

     Atom                 Charge (a.u.)
  ----------------------------------------
      1 Mo                    0.916361
      2 O                    -0.498258
      3 Cl                   -0.459560
      4 Cl                   -0.654036
      5 Cl                   -0.650472
      6 Cl                   -0.654036
  ----------------------------------------
  Sum of atomic charges =    -2.000000

                    Cartesian Multipole Moments
 -----------------------------------------------------------------
    Charge (ESU x 10^10)
                -9.6064
    Dipole Moment (Debye)
         X       0.3780      Y      -0.3780      Z       4.0202
       Tot       4.0556
    Quadrupole Moments (Debye-Ang)
        XX    -118.0204     XY      -0.8763     YY    -118.0204
        XZ      -0.2924     YZ       0.2924     ZZ     -92.2534

 Total job time:  37.43s(wall), 37.37s(cpu)
        *  Thank you very much for using Q-Chem.  Have a nice day.  *
