 Q-Chem 4.2, Q-Chem, Inc., Pleasanton, CA (2014).
 Q-Chem 4.2.0 for Intel X86 EM64T Linux

User input:
--------------------------------------------------------------
$comment
 MoOCl4, single point, with pseudopotentials, RB3LYP/{LanL2MB/6-31G(d)}
$end

$rem
 method = b3lyp
 basis = gen
 ecp = gen
 unrestricted = false
 scf_guess = gwh
 scf_algorithm = rca_diis
 scf_convergence = 9
 thresh = 14
 max_scf_cycles = 200
 print_general_basis = true
$end

$molecule
 -2 1
Mo     0.000325    -0.000325     0.051810
 O     0.000206    -0.000206     1.741504
Cl     1.711727    -1.711727    -0.659846
Cl    -1.710992    -1.711738    -0.660079
Cl    -1.711004     1.711004    -0.660311
Cl     1.711738     1.710992    -0.660079
$end

$basis
 O
 6-31g(d)
 ****
 Mo
 lanl2dz
 ****
 Cl
 6-31g(d)
 ****
$end

$ecp
 Mo
 lanl2dz
 ****
$end
--------------------------------------------------------------

             Standard Nuclear Orientation (Angstroms)
    I     Atom           X                Y                Z
 ----------------------------------------------------------------
    1      Mo     -0.0000056728     0.2956854500    -0.0000000000
    2      O      -0.0000013631     1.9853794584    -0.0000000000
    3      Cl     -2.4202245156    -0.4162054311    -0.0000000007
    4      Cl     -0.0000044669    -0.4162035532    -2.4202355932
    5      Cl      2.4202481073    -0.4162006722     0.0000000007
    6      Cl     -0.0000044682    -0.4162035532     2.4202355932
 ----------------------------------------------------------------

   28   -1983.7722261937      8.73E-10 Convergence criterion met
 Total energy in the final basis set = -1983.7722261937

             Orbital Energies (a.u.) and Symmetries
 --------------------------------------------------------------

 Alpha MOs, Restricted
 -- Occupied --
-101.18 -101.18 -101.18 -101.18  -18.89   -9.11   -9.11   -9.11
  1 A'    1 A"    2 A'    3 A'    4 A'    2 A"    5 A'    6 A'
 -9.106  -6.866  -6.866  -6.866  -6.866  -6.862  -6.862  -6.862
  7 A'    8 A'    3 A"    9 A'   10 A'   11 A'   12 A'    4 A"
 -6.862  -6.861  -6.861  -6.861  -6.861  -2.227  -1.292  -1.229
 13 A'    5 A"   14 A'    6 A"    7 A"   15 A'   16 A'    8 A"
 -1.229  -0.626  -0.462  -0.452  -0.452  -0.450  -0.110  -0.089
 17 A'   18 A'   19 A'    9 A"   20 A'   21 A'   22 A'   10 A"
 -0.089  -0.051  -0.037  -0.028  -0.021  -0.021  -0.004   0.012
 23 A'   24 A'   25 A'   11 A"   12 A"   26 A'   27 A'   13 A"
  0.012   0.021   0.024   0.024   0.042   0.114
 28 A'   29 A'   30 A'   14 A"   15 A"   16 A"

 Beta MOs, Restricted
 -- Occupied --
-101.18 -101.18 -101.18 -101.18  -18.89   -9.11   -9.11   -9.11
  1 A'    1 A"    2 A'    3 A'    4 A'    2 A"    5 A'    6 A'
 -9.106  -6.866  -6.866  -6.866  -6.866  -6.862  -6.862  -6.862
  7 A'    8 A'    3 A"    9 A'   10 A'   11 A'   12 A'    4 A"
 -6.862  -6.861  -6.861  -6.861  -6.861  -2.227  -1.292  -1.229
 13 A'    5 A"   14 A'    6 A"    7 A"   15 A'   16 A'    8 A"
 -1.229  -0.626  -0.462  -0.452  -0.452  -0.450  -0.110  -0.089
 17 A'   18 A'   19 A'    9 A"   20 A'   21 A'   22 A'   10 A"
 -0.089  -0.051  -0.037  -0.028  -0.021  -0.021  -0.004   0.012
 23 A'   24 A'   25 A'   11 A"   12 A"   26 A'   27 A'   13 A"
  0.012   0.021   0.024   0.024   0.042   0.114
 28 A'   29 A'   30 A'   14 A"   15 A"   16 A"

          Ground-State Mulliken Net Atomic Charges

     Atom                 Charge (a.u.)
  ----------------------------------------
      1 Mo                    0.582891
      2 O                    -0.507978
      3 Cl                   -0.518725
      4 Cl                   -0.518728
      5 Cl                   -0.518732
      6 Cl                   -0.518728
  ----------------------------------------
  Sum of atomic charges =    -2.000000

                    Cartesian Multipole Moments
 -----------------------------------------------------------------
    Charge (ESU x 10^10)
                -9.6064
    Dipole Moment (Debye)
         X      -0.0002      Y       1.3896      Z       0.0000
       Tot       1.3896
    Quadrupole Moments (Debye-Ang)
        XX    -118.1076     XY       0.0000     YY     -92.4022
        XZ       0.0000     YZ       0.0000     ZZ    -118.1076

 Total job time:  27.14s(wall), 27.14s(cpu)
        *  Thank you very much for using Q-Chem.  Have a nice day.  *
