 Q-Chem 4.2, Q-Chem, Inc., Pleasanton, CA (2014).
 Q-Chem 4.2.0 for Intel X86 EM64T Linux

User input:
--------------------------------------------------------------
$comment
 MoOCl4, single point, with pseudopotentials, RB3LYP/{LanL2MB/6-31G(d)}
$end

$rem
 method = b3lyp
 basis = gen
 ecp = gen
 unrestricted = false
 scf_guess = gwh
 scf_algorithm = diis_gdm
 scf_convergence = 9
 thresh = 14
 max_scf_cycles = 200
 print_general_basis = true
$end

$molecule
 -2 1
Mo     0.000325    -0.000325     0.051810
 O     0.000206    -0.000206     1.741504
Cl     1.711727    -1.711727    -0.659846
Cl    -1.710992    -1.711738    -0.660079
Cl    -1.711004     1.711004    -0.660311
Cl     1.711738     1.710992    -0.660079
$end

$basis
 O
 6-31g(d)
 ****
 Mo
 3-21g
 ****
 Cl
 lanl2dz
 ****
$end

$ecp
 Cl 4
 lanl2dz
 ****
$end
--------------------------------------------------------------

             Standard Nuclear Orientation (Angstroms)
    I     Atom           X                Y                Z
 ----------------------------------------------------------------
    1      Mo     -0.0000056728     0.2956854500    -0.0000000000
    2      O      -0.0000013631     1.9853794584    -0.0000000000
    3      Cl     -2.4202245156    -0.4162054311    -0.0000000007
    4      Cl     -0.0000044669    -0.4162035532    -2.4202355932
    5      Cl      2.4202481073    -0.4162006722     0.0000000007
    6      Cl     -0.0000044682    -0.4162035532     2.4202355932
 ----------------------------------------------------------------

   30   -4094.1222083033      3.00E-10 Convergence criterion met
 Total energy in the final basis set = -4094.1222083033

             Orbital Energies (a.u.) and Symmetries
 --------------------------------------------------------------

 Alpha MOs, Restricted
 -- Occupied --
-707.92  -99.13  -90.96  -90.95  -90.95  -18.89  -17.03  -13.78
  1 A'    2 A'    3 A'    1 A"    4 A'    5 A'    6 A'    7 A'
-13.759 -13.759  -8.429  -8.423  -8.423  -8.407  -8.406  -2.148
  2 A"    8 A'    9 A'    3 A"   10 A'   11 A'    4 A"   12 A'
 -1.252  -1.183  -1.183  -0.618  -0.445  -0.435  -0.435  -0.433
 13 A'    5 A"   14 A'   15 A'   16 A'    6 A"   17 A'   18 A'
 -0.105  -0.084  -0.084  -0.040  -0.030  -0.020  -0.013  -0.013
 19 A'    7 A"   20 A'   21 A'   22 A'    8 A"    9 A"   23 A'
  0.003   0.019   0.019   0.027   0.031   0.031   0.049   0.118
 24 A'   10 A"   25 A'   26 A'   27 A'   11 A"   12 A"   13 A"

 Beta MOs, Restricted
 -- Occupied --
-707.92  -99.13  -90.96  -90.95  -90.95  -18.89  -17.03  -13.78
  1 A'    2 A'    3 A'    1 A"    4 A'    5 A'    6 A'    7 A'
-13.759 -13.759  -8.429  -8.423  -8.423  -8.407  -8.406  -2.148
  2 A"    8 A'    9 A'    3 A"   10 A'   11 A'    4 A"   12 A'
 -1.252  -1.183  -1.183  -0.618  -0.445  -0.435  -0.435  -0.433
 13 A'    5 A"   14 A'   15 A'   16 A'    6 A"   17 A'   18 A'
 -0.105  -0.084  -0.084  -0.040  -0.030  -0.020  -0.013  -0.013
 19 A'    7 A"   20 A'   21 A'   22 A'    8 A"    9 A"   23 A'
  0.003   0.019   0.019   0.027   0.031   0.031   0.049   0.118
 24 A'   10 A"   25 A'   26 A'   27 A'   11 A"   12 A"   13 A"

          Ground-State Mulliken Net Atomic Charges

     Atom                 Charge (a.u.)
  ----------------------------------------
      1 Mo                    0.601149
      2 O                    -0.567800
      3 Cl                   -0.508331
      4 Cl                   -0.508337
      5 Cl                   -0.508344
      6 Cl                   -0.508337
  ----------------------------------------
  Sum of atomic charges =    -2.000000

                    Cartesian Multipole Moments
 -----------------------------------------------------------------
    Charge (ESU x 10^10)
                -9.6064
    Dipole Moment (Debye)
         X      -0.0002      Y       1.4851      Z      -0.0000
       Tot       1.4851
    Quadrupole Moments (Debye-Ang)
        XX    -116.2281     XY       0.0000     YY     -90.1153
        XZ       0.0000     YZ       0.0000     ZZ    -116.2280

 Total job time:  10.31s(wall), 10.31s(cpu)
        *  Thank you very much for using Q-Chem.  Have a nice day.  *
