 Q-Chem 4.2, Q-Chem, Inc., Pleasanton, CA (2014).
 Q-Chem 4.2.0 for Intel X86 EM64T Linux

User input:
--------------------------------------------------------------
$rem
 method b3lyp
 basis 6-31g*
 moprop 2
 moprop_diis_dim_ss 5
$end

$molecule
0 1
S          -1.71956        -0.00008        -0.00009
S           1.13397         0.99623         0.32378
S           1.13395        -0.99624        -0.32388
C          -0.51264         1.34934        -0.38930
C          -0.51251        -1.34919         0.38961
H          -0.43862         1.46792        -1.47144
H          -0.87301         2.27578         0.06671
H          -0.43822        -1.46730         1.47178
H          -0.87299        -2.27583        -0.06589
$end
--------------------------------------------------------------

             Standard Nuclear Orientation (Angstroms)
    I     Atom           X                Y                Z
 ----------------------------------------------------------------
    1      S       1.7195603122    -0.0000829260     0.0000929987
    2      S      -1.1339676405     0.9962316031    -0.3237811068
    3      S      -1.1339517347    -0.9962393001     0.3238761145
    4      C       0.5126414909     1.3493382558     0.3893025565
    5      C       0.5125091349    -1.3491906577    -0.3896112071
    6      H       0.4386195765     1.4679168524     1.4714425793
    7      H       0.8730136929     2.2757783768    -0.0667054576
    8      H       0.4382210500    -1.4672990424    -1.4717815149
    9      H       0.8729869336    -2.2758318081     0.0658881947
 ----------------------------------------------------------------

    8   -1273.1786655885      3.91E-06 Convergence criterion met
 Total energy in the final basis set = -1273.1786655885

                    Orbital Energies (a.u.)
 --------------------------------------------------------------

 Alpha MOs
 -- Occupied --
-88.910 -88.910 -88.891 -10.258 -10.258  -7.971  -7.971  -7.952
 -5.937  -5.937  -5.933  -5.933  -5.925  -5.925  -5.917  -5.913
 -5.906  -0.864  -0.765  -0.754  -0.609  -0.609  -0.475  -0.463
 -0.446  -0.403  -0.375  -0.375  -0.320  -0.287  -0.239  -0.232

          Ground-State Mulliken Net Atomic Charges

     Atom                 Charge (a.u.)
  ----------------------------------------
      1 S                     0.144021
      2 S                     0.064899
      3 S                     0.064897
      4 C                    -0.579881
      5 C                    -0.579946
      6 H                     0.224715
      7 H                     0.218267
      8 H                     0.224741
      9 H                     0.218286
  ----------------------------------------
  Sum of atomic charges =    -0.000000

                    Cartesian Multipole Moments
 -----------------------------------------------------------------
    Charge (ESU x 10^10)
                -0.0000
    Dipole Moment (Debye)
         X       0.5833      Y       0.0002      Z      -0.0006
       Tot       0.5833
    Quadrupole Moments (Debye-Ang)
        XX     -56.3303     XY       0.0004     YY     -45.4127
        XZ      -0.0003     YZ       1.9026     ZZ     -53.0809

 Total job time:  32.39s(wall), 28.74s(cpu)
        *  Thank you very much for using Q-Chem.  Have a nice day.  *
