 Q-Chem 4.2, Q-Chem, Inc., Pleasanton, CA (2014).
 Q-Chem 4.2.0 for Intel X86 EM64T Linux

User input:
--------------------------------------------------------------
$rem
 jobtype freq
 method b3lyp
 basis 6-31g*
$end

$molecule
0 1
S          -1.71956        -0.00008        -0.00009
S           1.13397         0.99623         0.32378
S           1.13395        -0.99624        -0.32388
C          -0.51264         1.34934        -0.38930
C          -0.51251        -1.34919         0.38961
H          -0.43862         1.46792        -1.47144
H          -0.87301         2.27578         0.06671
H          -0.43822        -1.46730         1.47178
H          -0.87299        -2.27583        -0.06589
$end
--------------------------------------------------------------

             Standard Nuclear Orientation (Angstroms)
    I     Atom           X                Y                Z
 ----------------------------------------------------------------
    1      S       1.7195603122    -0.0000829260     0.0000929987
    2      S      -1.1339676405     0.9962316031    -0.3237811068
    3      S      -1.1339517347    -0.9962393001     0.3238761145
    4      C       0.5126414909     1.3493382558     0.3893025565
    5      C       0.5125091349    -1.3491906577    -0.3896112071
    6      H       0.4386195765     1.4679168524     1.4714425793
    7      H       0.8730136929     2.2757783768    -0.0667054576
    8      H       0.4382210500    -1.4672990424    -1.4717815149
    9      H       0.8729869336    -2.2758318081     0.0658881947
 ----------------------------------------------------------------

   14   -1273.1786669488      2.45E-09 Convergence criterion met
 Total energy in the final basis set = -1273.1786669488

                    Orbital Energies (a.u.)
 --------------------------------------------------------------

 Alpha MOs
 -- Occupied --
-88.909 -88.909 -88.891 -10.258 -10.258  -7.971  -7.971  -7.952
 -5.937  -5.937  -5.933  -5.933  -5.925  -5.925  -5.917  -5.913
 -5.906  -0.864  -0.765  -0.754  -0.609  -0.609  -0.475  -0.463
 -0.446  -0.403  -0.375  -0.375  -0.320  -0.287  -0.239  -0.232

          Ground-State Mulliken Net Atomic Charges

     Atom                 Charge (a.u.)
  ----------------------------------------
      1 S                     0.143975
      2 S                     0.064922
      3 S                     0.064925
      4 C                    -0.579891
      5 C                    -0.579898
      6 H                     0.224718
      7 H                     0.218263
      8 H                     0.224723
      9 H                     0.218263
  ----------------------------------------
  Sum of atomic charges =     0.000000

                    Cartesian Multipole Moments
 -----------------------------------------------------------------
    Charge (ESU x 10^10)
                 0.0000
    Dipole Moment (Debye)
         X       0.5825      Y       0.0001      Z      -0.0006
       Tot       0.5825
    Quadrupole Moments (Debye-Ang)
        XX     -56.3307     XY       0.0004     YY     -45.4135
        XZ      -0.0003     YZ       1.9026     ZZ     -53.0813

 Frequency:        88.66                 226.79                 351.87
 Force Cnst:      0.0129                 0.0997                 0.8268
 Red. Mass:       2.7829                 3.2901                11.3341
 IR Intens:        7.393                  3.362                  0.053
 Frequency:       395.59                 491.86                 657.97
 Force Cnst:      1.1341                 2.9326                 1.5014
 Red. Mass:      12.3004                20.5746                 5.8861
 IR Intens:        0.064                  0.951                  3.249
 Frequency:       673.37                 688.44                 727.28
 Force Cnst:      1.8055                 2.1756                 1.6455
 Red. Mass:       6.7582                 7.7910                 5.2800
 IR Intens:        1.695                  6.394                  7.199
 Frequency:       857.59                 883.13                1105.81
 Force Cnst:      0.5996                 0.6703                 0.7671
 Red. Mass:       1.3837                 1.4587                 1.0648
 IR Intens:        8.797                  0.202                  2.427
 Frequency:      1134.96                1219.82                1255.60
 Force Cnst:      0.7972                 0.9752                 1.0726
 Red. Mass:       1.0504                 1.1124                 1.1547
 IR Intens:        5.987                  0.733                 12.517
 Frequency:      1476.15                1477.05                3097.24
 Force Cnst:      1.3894                 1.3846                 5.9584
 Red. Mass:       1.0822                 1.0772                 1.0542
 IR Intens:        0.995                  0.594                 16.614
 Frequency:      3097.63                3163.70                3164.74
 Force Cnst:      5.9641                 6.5577                 6.5645
 Red. Mass:       1.0550                 1.1120                 1.1124
 IR Intens:        0.086                  4.328                  0.054

 STANDARD THERMODYNAMIC QUANTITIES AT   298.15 K  AND     1.00 ATM

   This Molecule has  0 Imaginary Frequencies
   Zero point vibrational energy:       37.505 kcal/mol

   Atom    1 Element S  Has Mass   31.97207
   Atom    2 Element S  Has Mass   31.97207
   Atom    3 Element S  Has Mass   31.97207
   Atom    4 Element C  Has Mass   12.00000
   Atom    5 Element C  Has Mass   12.00000
   Atom    6 Element H  Has Mass    1.00783
   Atom    7 Element H  Has Mass    1.00783
   Atom    8 Element H  Has Mass    1.00783
   Atom    9 Element H  Has Mass    1.00783
   Molecular Mass:   123.947530 amu
   Principal axes and moments of inertia in amu*Bohr^2:
                             1           2           3
    Eigenvalues --      488.01070   712.46204  1096.38956
          X               1.00000     0.00001    -0.00000
          Y              -0.00001     0.99932     0.03694
          Z               0.00000    -0.03694     0.99932
   Rotational Symmetry Number is   1
   The Molecule is an Asymmetric Top
   Translational Enthalpy:        0.889 kcal/mol
   Rotational Enthalpy:           0.889 kcal/mol
   Vibrational Enthalpy:         39.300 kcal/mol
   gas constant (RT):             0.592 kcal/mol
   Translational Entropy:        40.358  cal/mol.K
   Rotational Entropy:           27.435  cal/mol.K
   Vibrational Entropy:          10.230  cal/mol.K

   Total Enthalpy:               41.670 kcal/mol
   Total Entropy:                78.023  cal/mol.K

 Total job time:  90.82s(wall), 84.97s(cpu)
        *  Thank you very much for using Q-Chem.  Have a nice day.  *
