 Q-Chem 4.2, Q-Chem, Inc., Pleasanton, CA (2014).
 Q-Chem 4.2.0 for Intel X86 EM64T Linux

User input:
--------------------------------------------------------------
$rem
 jobtype freq
 method hf
 basis sto-3g
 scf_convergence 9
 thresh 12
 symmetry false
 sym_ignore true
$end

$molecule
0 1
N     -0.0699826875    0.3321987191    0.2821283177
C      1.3728035449    0.0970713322   -0.0129587739
C      2.0969275417   -0.0523593054    1.3682652221
O      3.1382490088   -0.6563684788    1.5380162924
C      1.9529664597    1.3136139853   -0.7956021969
H      1.8442727348    2.2050605044   -0.1801631789
H      1.3455899915    1.4594935008   -1.6885689523
C      3.4053646872    1.1270611844   -1.1918075237
C      4.4845249667    1.6235038050   -0.5598918002
N      5.6509089647    1.2379326369   -1.2284610654
H      6.6009314349    1.4112351003   -0.9028629397
C      5.2921619642    0.4356274269   -2.3131617003
C      3.8942019475    0.3557998019   -2.3263315791
C      3.2659168792   -0.3832607567   -3.3431309548
H      2.1864306677   -0.4577058843   -3.3815918670
C      4.0381762333   -1.0087512639   -4.2870993776
H      3.5696890585   -1.5824763141   -5.0755609734
C      5.4445159165   -0.9194874753   -4.2519002882
H      6.0229926396   -1.4277973542   -5.0130007062
C      6.0869576238   -0.2024044961   -3.2767702726
H      7.1656650647   -0.1287762497   -3.2458650647
H      4.5457621618    2.2425310766    0.3253979653
H     -0.5159777859    0.7478905868   -0.5487661007
H      1.5420526570   -0.8143939718   -0.5935463196
H     -0.5302278747   -0.5823989653    0.4084507634
O      1.4575846656    0.5996887308    2.4093500287
H      0.5990015339    0.8842421241    2.0047830456
$end
--------------------------------------------------------------

             Standard Nuclear Orientation (Angstroms)
    I     Atom           X                Y                Z
 ----------------------------------------------------------------
    1      N      -0.0699826875     0.3321987191     0.2821283177
    2      C       1.3728035449     0.0970713322    -0.0129587739
    3      C       2.0969275417    -0.0523593054     1.3682652221
    4      O       3.1382490088    -0.6563684788     1.5380162924
    5      C       1.9529664597     1.3136139853    -0.7956021969
    6      H       1.8442727348     2.2050605044    -0.1801631789
    7      H       1.3455899915     1.4594935008    -1.6885689523
    8      C       3.4053646872     1.1270611844    -1.1918075237
    9      C       4.4845249667     1.6235038050    -0.5598918002
   10      N       5.6509089647     1.2379326369    -1.2284610654
   11      H       6.6009314349     1.4112351003    -0.9028629397
   12      C       5.2921619642     0.4356274269    -2.3131617003
   13      C       3.8942019475     0.3557998019    -2.3263315791
   14      C       3.2659168792    -0.3832607567    -3.3431309548
   15      H       2.1864306677    -0.4577058843    -3.3815918670
   16      C       4.0381762333    -1.0087512639    -4.2870993776
   17      H       3.5696890585    -1.5824763141    -5.0755609734
   18      C       5.4445159165    -0.9194874753    -4.2519002882
   19      H       6.0229926396    -1.4277973542    -5.0130007062
   20      C       6.0869576238    -0.2024044961    -3.2767702726
   21      H       7.1656650647    -0.1287762497    -3.2458650647
   22      H       4.5457621618     2.2425310766     0.3253979653
   23      H      -0.5159777859     0.7478905868    -0.5487661007
   24      H       1.5420526570    -0.8143939718    -0.5935463196
   25      H      -0.5302278747    -0.5823989653     0.4084507634
   26      O       1.4575846656     0.5996887308     2.4093500287
   27      H       0.5990015339     0.8842421241     2.0047830456
 ----------------------------------------------------------------

   20    -673.5905711129      7.72E-10 Convergence criterion met
 Total energy in the final basis set = -673.5905711129

                    Orbital Energies (a.u.)
 --------------------------------------------------------------

 Alpha MOs
 -- Occupied --
-20.269 -20.242 -15.390 -15.345 -11.148 -11.098 -11.068 -11.065
-11.063 -11.025 -11.025 -11.024 -11.016 -11.015 -11.012  -1.348
 -1.258  -1.220  -1.154  -1.075  -1.026  -0.959  -0.937  -0.913
 -0.838  -0.783  -0.749  -0.711  -0.693  -0.669  -0.648  -0.617
 -0.602  -0.598  -0.581  -0.556  -0.543  -0.537  -0.524  -0.518
 -0.498  -0.487  -0.479  -0.460  -0.445  -0.438  -0.417  -0.414
 -0.370  -0.329  -0.326  -0.307  -0.243  -0.226

          Ground-State Mulliken Net Atomic Charges

     Atom                 Charge (a.u.)
  ----------------------------------------
      1 N                    -0.405350
      2 C                     0.019228
      3 C                     0.298919
      4 O                    -0.260769
      5 C                    -0.106000
      6 H                     0.066640
      7 H                     0.060788
      8 C                    -0.035657
      9 C                     0.043391
     10 N                    -0.321558
     11 H                     0.216300
     12 C                     0.105706
     13 C                    -0.023661
     14 C                    -0.064892
     15 H                     0.055242
     16 C                    -0.075176
     17 H                     0.056995
     18 C                    -0.059357
     19 H                     0.060758
     20 C                    -0.082603
     21 H                     0.061584
     22 H                     0.077314
     23 H                     0.163263
     24 H                     0.065997
     25 H                     0.161111
     26 O                    -0.312238
     27 H                     0.234025
  ----------------------------------------
  Sum of atomic charges =    -0.000000

                    Cartesian Multipole Moments
 -----------------------------------------------------------------
    Charge (ESU x 10^10)
                -0.0000
    Dipole Moment (Debye)
         X      -1.2075      Y       0.9547      Z      -2.2316
       Tot       2.7110
    Quadrupole Moments (Debye-Ang)
        XX     -71.1304     XY       8.1630     YY     -79.5855
        XZ      -4.0495     YZ       1.8134     ZZ     -89.9284

 Frequency:        24.36                  43.22                  61.87
 Force Cnst:      0.0023                 0.0064                 0.0154
 Red. Mass:       6.5339                 5.8014                 6.8393
 IR Intens:        2.558                  1.623                  2.771
 Frequency:        86.70                 157.61                 234.58
 Force Cnst:      0.0199                 0.0841                 0.1011
 Red. Mass:       4.4985                 5.7487                 3.1193
 IR Intens:        3.260                  0.437                 37.914
 Frequency:       258.71                 279.22                 285.66
 Force Cnst:      0.1479                 0.1296                 0.0648
 Red. Mass:       3.7501                 2.8218                 1.3470
 IR Intens:        3.307                 37.169                 26.379
 Frequency:       320.19                 336.15                 349.23
 Force Cnst:      0.1151                 0.1753                 0.2578
 Red. Mass:       1.9059                 2.6324                 3.5871
 IR Intens:       43.381                  9.001                  2.490
 Frequency:       460.38                 499.46                 521.06
 Force Cnst:      0.3849                 0.4505                 0.5358
 Red. Mass:       3.0822                 3.0653                 3.3492
 IR Intens:       25.753                  0.221                  1.259
 Frequency:       547.19                 615.45                 656.94
 Force Cnst:      1.1954                 1.2255                 0.7935
 Red. Mass:       6.7763                 5.4913                 3.1205
 IR Intens:        7.239                  0.350                  1.171
 Frequency:       659.70                 681.80                 726.88
 Force Cnst:      1.2141                 1.2072                 0.6162
 Red. Mass:       4.7352                 4.4077                 1.9794
 IR Intens:        5.495                  7.697                 59.956
 Frequency:       734.37                 770.00                 854.53
 Force Cnst:      0.5020                 1.6124                 2.0886
 Red. Mass:       1.5800                 4.6158                 4.8546
 IR Intens:       56.017                  1.296                 14.307
 Frequency:       865.85                 896.15                 899.75
 Force Cnst:      1.9936                 1.3603                 0.8670
 Red. Mass:       4.5134                 2.8750                 1.8178
 IR Intens:        3.803                  5.054                 15.569
 Frequency:       917.03                1004.73                1013.75
 Force Cnst:      1.5811                 2.4215                 0.8930
 Red. Mass:       3.1912                 4.0713                 1.4748
 IR Intens:        4.571                  0.482                  2.590
 Frequency:      1035.32                1110.03                1139.58
 Force Cnst:      0.8571                 1.1270                 1.2769
 Red. Mass:       1.3572                 1.5524                 1.6689
 IR Intens:        0.043                 21.370                 48.508
 Frequency:      1157.21                1183.61                1192.90
 Force Cnst:      1.0475                 1.8341                 1.7398
 Red. Mass:       1.3277                 2.2220                 2.0751
 IR Intens:        1.037                  1.613                 25.652
 Frequency:      1193.31                1229.95                1249.04
 Force Cnst:      1.0969                 1.8898                 1.7678
 Red. Mass:       1.3074                 2.1202                 1.9233
 IR Intens:        2.259                 22.485                 17.522
 Frequency:      1276.12                1306.29                1326.57
 Force Cnst:      2.2572                 2.6014                 1.4013
 Red. Mass:       2.3525                 2.5874                 1.3515
 IR Intens:       32.063                  2.070                  6.953
 Frequency:      1359.43                1400.33                1430.30
 Force Cnst:      1.5061                 1.6789                 2.4034
 Red. Mass:       1.3833                 1.4532                 1.9939
 IR Intens:        2.736                  9.512                 27.481
 Frequency:      1444.90                1457.97                1481.45
 Force Cnst:      2.7672                 2.0120                 1.7245
 Red. Mass:       2.2496                 1.6065                 1.3337
 IR Intens:        8.541                 25.053                  2.144
 Frequency:      1521.64                1559.65                1596.63
 Force Cnst:      3.0717                 2.2459                 2.8746
 Red. Mass:       2.2517                 1.5671                 1.9139
 IR Intens:       23.264                  9.307                  8.959
 Frequency:      1630.45                1653.49                1669.54
 Force Cnst:      2.3443                 2.4973                 2.8330
 Red. Mass:       1.4967                 1.5503                 1.7251
 IR Intens:       35.274                176.705                 39.031
 Frequency:      1689.86                1743.65                1792.61
 Force Cnst:      4.7740                 4.6393                 6.4946
 Red. Mass:       2.8375                 2.5899                 3.4303
 IR Intens:       21.926                 42.770                  8.722
 Frequency:      1815.58                1892.65                1928.91
 Force Cnst:      2.1413                13.3375                14.5533
 Red. Mass:       1.1025                 6.3196                 6.6387
 IR Intens:        0.133                 15.747                  6.223
 Frequency:      1974.54                2003.86                2155.12
 Force Cnst:     14.4914                 2.6016                22.4619
 Red. Mass:       6.3085                 1.0997                 8.2083
 IR Intens:       13.949                  9.966                 90.275
 Frequency:      3598.02                3624.34                3708.74
 Force Cnst:      8.1323                 8.4442                 8.8278
 Red. Mass:       1.0662                 1.0911                 1.0893
 IR Intens:        3.144                  1.529                  3.283
 Frequency:      3716.06                3721.79                3733.98
 Force Cnst:      9.0298                 8.9294                 9.0415
 Red. Mass:       1.1098                 1.0941                 1.1006
 IR Intens:        0.328                  5.515                  4.521
 Frequency:      3742.41                3756.49                3922.47
 Force Cnst:      9.1143                 9.1776                 9.5558
 Red. Mass:       1.1045                 1.1039                 1.0541
 IR Intens:        3.614                 28.804                  0.537
 Frequency:      4104.52                4144.60                4205.03
 Force Cnst:     10.8524                10.9669                11.1000
 Red. Mass:       1.0933                 1.0836                 1.0655
 IR Intens:        0.237                 95.009                 50.015

 STANDARD THERMODYNAMIC QUANTITIES AT   298.15 K  AND     1.00 ATM

   This Molecule has  0 Imaginary Frequencies
   Zero point vibrational energy:      159.173 kcal/mol

   Atom    1 Element N  Has Mass   14.00307
   Atom    2 Element C  Has Mass   12.00000
   Atom    3 Element C  Has Mass   12.00000
   Atom    4 Element O  Has Mass   15.99491
   Atom    5 Element C  Has Mass   12.00000
   Atom    6 Element H  Has Mass    1.00783
   Atom    7 Element H  Has Mass    1.00783
   Atom    8 Element C  Has Mass   12.00000
   Atom    9 Element C  Has Mass   12.00000
   Atom   10 Element N  Has Mass   14.00307
   Atom   11 Element H  Has Mass    1.00783
   Atom   12 Element C  Has Mass   12.00000
   Atom   13 Element C  Has Mass   12.00000
   Atom   14 Element C  Has Mass   12.00000
   Atom   15 Element H  Has Mass    1.00783
   Atom   16 Element C  Has Mass   12.00000
   Atom   17 Element H  Has Mass    1.00783
   Atom   18 Element C  Has Mass   12.00000
   Atom   19 Element H  Has Mass    1.00783
   Atom   20 Element C  Has Mass   12.00000
   Atom   21 Element H  Has Mass    1.00783
   Atom   22 Element H  Has Mass    1.00783
   Atom   23 Element H  Has Mass    1.00783
   Atom   24 Element H  Has Mass    1.00783
   Atom   25 Element H  Has Mass    1.00783
   Atom   26 Element O  Has Mass   15.99491
   Atom   27 Element H  Has Mass    1.00783
   Molecular Mass:   204.089920 amu
   Principal axes and moments of inertia in amu*Bohr^2:
                             1           2           3
    Eigenvalues --     1460.12152  4991.97529  5674.09488
          X              -0.62632     0.75446    -0.19624
          Y               0.09289     0.32216     0.94212
          Z               0.77401     0.57184    -0.27186
   Rotational Symmetry Number is   1
   The Molecule is an Asymmetric Top
   Translational Enthalpy:        0.889 kcal/mol
   Rotational Enthalpy:           0.889 kcal/mol
   Vibrational Enthalpy:        164.998 kcal/mol
   gas constant (RT):             0.592 kcal/mol
   Translational Entropy:        41.844  cal/mol.K
   Rotational Entropy:           32.092  cal/mol.K
   Vibrational Entropy:          38.757  cal/mol.K

   Total Enthalpy:              167.368 kcal/mol
   Total Entropy:               112.693  cal/mol.K

 Total job time:  27.58s(wall), 26.72s(cpu)
        *  Thank you very much for using Q-Chem.  Have a nice day.  *
