                         Program Version 4.0.1.2 - RELEASE -
|  1> ! Opt
|  2>
|  3> *xyz 0 1
|  4> H 0.0 0.0 0.0
|  5> H 1.0 0.0 0.0
|  6> end
|  7> %pal
|  8>  nprocs 1
|  9> end
| 10>
| 11>                          ****END OF INPUT****
 Total Charge           Charge          ....    0
 Multiplicity           Mult            ....    1
 Number of Electrons    NEL             ....    2
FINAL SINGLE POINT ENERGY        -1.100088862913
FINAL SINGLE POINT ENERGY        -1.123630637764
FINAL SINGLE POINT ENERGY        -1.125509217942
FINAL SINGLE POINT ENERGY        -1.128725333376
FINAL SINGLE POINT ENERGY        -1.128920981694
FINAL SINGLE POINT ENERGY        -1.128928546128
                    ***********************HURRAY********************

CARTESIAN COORDINATES (ANGSTROEM)
---------------------------------
  H      0.126534    0.000000    0.000000
  H      0.873466    0.000000    0.000000

 Multiplicity           Mult            ....    1
 Number of Electrons    NEL             ....    2
 Basis Dimension        Dim             ....   10

ORBITAL ENERGIES
----------------

  NO   OCC          E(Eh)            E(eV)
   0   2.0000      -0.590351       -16.0643
   1   0.0000       0.196113         5.3365
   2   0.0000       0.480739        13.0816
   3   0.0000       0.956624        26.0311
   4   0.0000       1.420339        38.6494
   5   0.0000       1.420339        38.6494

MULLIKEN ATOMIC CHARGES
-----------------------
   0 H :   -0.000000
   1 H :    0.000000
Sum of atomic charges:    0.0000000

LOEWDIN ATOMIC CHARGES
----------------------
   0 H :   -0.000000
   1 H :   -0.000000

  Mayer bond orders larger than 0.1
B(  0-H ,  1-H ) :   1.0000

FINAL SINGLE POINT ENERGY        -1.128928568092

DIPOLE MOMENT
-------------
                                X             Y             Z
Electronic contribution:     -0.00000       0.00000      -0.00000
Nuclear contribution   :     -0.00000       0.00000       0.00000
                        -----------------------------------------
Total Dipole Moment    :     -0.00000       0.00000      -0.00000
                        -----------------------------------------
Magnitude (a.u.)       :      0.00000
Magnitude (Debye)      :      0.00000

                             ****ORCA TERMINATED NORMALLY****
TOTAL RUN TIME: 0 days 0 hours 0 minutes 33 seconds 712 msec
