                         Program Version 4.0.1 -  RELEASE  -
|  1> ! hf sto-3g nori noautostart verytightscf anfreq usesym
|  2>
|  3> * xyz 0 1
|  4> H         0.0000000000    0.0000000000   -0.9325440499
|  5> F         0.0000000000    0.0000000000    0.0229640499
|  6> *
|  7>
|  8>                          ****END OF INPUT****

CARTESIAN COORDINATES (ANGSTROEM)
---------------------------------
  H      0.000000    0.000000   -0.907365
  F      0.000000    0.000000    0.048143

 Total Charge           Charge          ....    0
 Multiplicity           Mult            ....    1
 Number of Electrons    NEL             ....   10
 Basis Dimension        Dim             ....    6

ORBITAL ENERGIES
----------------

  NO   OCC          E(Eh)            E(eV)    Irrep
   0   2.0000     -25.903510      -704.8704    1-A1
   1   2.0000      -1.459844       -39.7244    2-A1
   2   2.0000      -0.573638       -15.6095    3-A1
   3   2.0000      -0.463119       -12.6021    1-B1
   4   2.0000      -0.463119       -12.6021    1-B2
   5   0.0000       0.589775        16.0486    4-A1

MULLIKEN ATOMIC CHARGES
-----------------------
   0 H :    0.192238
   1 F :   -0.192238
Sum of atomic charges:    0.0000000

LOEWDIN ATOMIC CHARGES
----------------------
   0 H :    0.141420
   1 F :   -0.141420

  Mayer bond orders larger than 0.1
B(  0-H ,  1-F ) :   0.9630

FINAL SINGLE POINT ENERGY       -98.572847344359

DIPOLE MOMENT
-------------
                                X             Y             Z
Electronic contribution:     -0.00000      -0.00000       0.40332
Nuclear contribution   :      0.00000       0.00000      -0.89587
                        -----------------------------------------
Total Dipole Moment    :      0.00000       0.00000      -0.49255
                        -----------------------------------------
Magnitude (a.u.)       :      0.49255
Magnitude (Debye)      :      1.25197

VIBRATIONAL FREQUENCIES
-----------------------

   0:         0.00 cm**-1
   1:         0.00 cm**-1
   2:         0.00 cm**-1
   3:         0.00 cm**-1
   4:         0.00 cm**-1
   5:      4473.89 cm**-1

IR SPECTRUM
-----------

 Mode    freq (cm**-1)   T**2         TX         TY         TZ
-------------------------------------------------------------------
   5:      4473.89   38.193029  (  0.000000   0.000000  -6.180051)

--------------------------
THERMOCHEMISTRY AT 298.15K
--------------------------

Temperature         ... 298.15 K
Pressure            ... 1.00 atm
Total Mass          ... 20.01 AMU
The molecule is recognized as being linear

Throughout the following assumptions are being made:
  (1) The electronic state is orbitally nondegenerate
  (2) There are no thermally accessible electronically excited states
  (3) Hindered rotations indicated by low frequency modes are not
      treated as such but are treated as vibrations and this may
      cause some error
  (4) All equations used are the standard statistical mechanics
      equations for an ideal gas
  (5) All vibrations are strictly harmonic

freq.    4473.89  E(vib)   ...       0.00

------------
INNER ENERGY
------------

The inner energy is: U= E(el) + E(ZPE) + E(vib) + E(rot) + E(trans)
    E(el)   - is the total energy from the electronic structure calculation
              = E(kin-el) + E(nuc-el) + E(el-el) + E(nuc-nuc)
    E(ZPE)  - the the zero temperature vibrational energy from the frequency calculation
    E(vib)  - the the finite temperature correction to E(ZPE) due to population
              of excited vibrational states
    E(rot)  - is the rotational thermal energy
    E(trans)- is the translational thermal energy

Summary of contributions to the inner energy U:
Electronic energy                ...    -98.57284734 Eh
Zero point energy                ...      0.01019228 Eh       6.40 kcal/mol
Thermal vibrational correction   ...      0.00000000 Eh       0.00 kcal/mol
Thermal rotational correction    ...      0.00094418 Eh       0.59 kcal/mol
Thermal translational correction ...      0.00141627 Eh       0.89 kcal/mol
-----------------------------------------------------------------------
Total thermal energy                    -98.56029461 Eh

Summary of corrections to the electronic energy:
(perhaps to be used in another calculation)
Total thermal correction                  0.00236045 Eh       1.48 kcal/mol
Non-thermal (ZPE) correction              0.01019228 Eh       6.40 kcal/mol
-----------------------------------------------------------------------
Total correction                          0.01255273 Eh       7.88 kcal/mol

--------
ENTHALPY
--------

The enthalpy is H = U + kB*T
                kB is Boltzmann's constant
Total free energy                 ...    -98.56029461 Eh
Thermal Enthalpy correction       ...      0.00094421 Eh       0.59 kcal/mol
-----------------------------------------------------------------------
Total Enthalpy                    ...    -98.55935040 Eh

Vibrational entropy computed according to the QRRHO of S. Grimme
Chem.Eur.J. 2012 18 9955

-------
ENTROPY
-------

The entropy contributions are T*S = T*(S(el)+S(vib)+S(rot)+S(trans)
     S(el)   - electronic entropy
     S(vib)  - vibrational entropy
     S(rot)  - rotational entropy
     S(trans)- translational entropy
The entropies will be listed as mutliplied by the temperature to get
units of energy

Electronic entropy                ...      0.00000000 Eh      0.00 kcal/mol
Vibrational entropy               ...     -0.00000000 Eh     -0.00 kcal/mol
Rotational entropy                ...      0.00253145 Eh      1.59 kcal/mol
Translational entropy             ...      0.01659227 Eh     10.41 kcal/mol
-----------------------------------------------------------------------
Final entropy term                ...      0.01912371 Eh     12.00 kcal/mol

CAUTION: The rotational entropy is not quite correctly treated here
         because it includes a symmetry number that is not yet correctly
         implemented in ORCA!
For a linear molecule the correct rotational entropy is:
    S(rot) = R*(ln(qrot/sn)+1)
    R    = 8.31441 J/mol/K = 1.987191683e-3 kcal/mol/K
    qrot =   10.7429674
    sn is the rotational symmetry number. We have assumed 2 here
       if it is different for your molecule then you should correct
       the printed rotational entropy by manually evaluating the equation
       as given above

For convenience we print out the resulting values for sn=1 - 12:
 sn= 1  qrot/sn=      10.7430 T*S(rot)=     2.00 kcal/mol T*S(tot)=    12.41 kcal/mol
 sn= 2  qrot/sn=       5.3715 T*S(rot)=     1.59 kcal/mol T*S(tot)=    12.00 kcal/mol
 sn= 3  qrot/sn=       3.5810 T*S(rot)=     1.35 kcal/mol T*S(tot)=    11.76 kcal/mol
 sn= 4  qrot/sn=       2.6857 T*S(rot)=     1.18 kcal/mol T*S(tot)=    11.59 kcal/mol
 sn= 5  qrot/sn=       2.1486 T*S(rot)=     1.05 kcal/mol T*S(tot)=    11.46 kcal/mol
 sn= 6  qrot/sn=       1.7905 T*S(rot)=     0.94 kcal/mol T*S(tot)=    11.35 kcal/mol
 sn= 7  qrot/sn=       1.5347 T*S(rot)=     0.85 kcal/mol T*S(tot)=    11.26 kcal/mol
 sn= 8  qrot/sn=       1.3429 T*S(rot)=     0.77 kcal/mol T*S(tot)=    11.18 kcal/mol
 sn= 9  qrot/sn=       1.1937 T*S(rot)=     0.70 kcal/mol T*S(tot)=    11.11 kcal/mol
 sn=10  qrot/sn=       1.0743 T*S(rot)=     0.63 kcal/mol T*S(tot)=    11.05 kcal/mol
 sn=11  qrot/sn=       0.9766 T*S(rot)=     0.58 kcal/mol T*S(tot)=    10.99 kcal/mol
 sn=12  qrot/sn=       0.8952 T*S(rot)=     0.53 kcal/mol T*S(tot)=    10.94 kcal/mol

-------------------
GIBBS FREE ENTHALPY
-------------------

The Gibbs free enthalpy is G = H - T*S

Total enthalpy                    ...    -98.55935040 Eh
Total entropy correction          ...     -0.01912371 Eh    -12.00 kcal/mol
-----------------------------------------------------------------------
Final Gibbs free enthalpy         ...    -98.57847412 Eh

For completeness - the Gibbs free enthalpy minus the electronic energy
G-E(el)                           ...     -0.00562677 Eh     -3.53 kcal/mol

                             ****ORCA TERMINATED NORMALLY****
TOTAL RUN TIME: 0 days 0 hours 0 minutes 1 seconds 837 msec
