 Gaussian 16, Revision B.01,
 Gaussian 16:  ES64L-G16RevB.01 20-Dec-2017

 ------------------------------
 # HF 6-31G(d,p) scf=tight scan
 ------------------------------

 -----------------------------
 h3o+ scan along umbrella mode
 -----------------------------
 Symbolic Z-matrix:
 Charge =  1 Multiplicity = 1

 SCF Done:  E(RHF) =  -76.2083845924     A.U. after    9 cycles

 The electronic state is 1-A1.
 Alpha  occ. eigenvalues --  -21.06403  -1.90789  -1.10310  -1.10310  -1.08297
 Alpha virt. eigenvalues --   -0.15310  -0.02952  -0.02952   0.56403   0.56403
 Alpha virt. eigenvalues --    0.66620   0.78988   0.90191   0.90191   1.09717
 Alpha virt. eigenvalues --    1.23940   1.23940   1.83425   2.09575   2.09575

 Mulliken charges:
               1
     1  O   -0.253032
     2  H    0.417677
     3  H    0.417677
     4  H    0.417677
 Sum of Mulliken charges =   1.00000

 Dipole moment (field-independent basis, Debye):
    X=             -0.0000    Y=             -0.0000    Z=             -3.4848  Tot=              3.4848
 Quadrupole moment (field-independent basis, Debye-Ang):
   XX=             -4.3750   YY=             -4.3750   ZZ=             -4.0354
   XY=             -0.0000   XZ=              0.0000   YZ=              0.0000

 SCF Done:  E(RHF) =  -76.2170491883     A.U. after    8 cycles
 SCF Done:  E(RHF) =  -76.2251854016     A.U. after    8 cycles
 SCF Done:  E(RHF) =  -76.2328174631     A.U. after    8 cycles
 SCF Done:  E(RHF) =  -76.2399677301     A.U. after    8 cycles
 SCF Done:  E(RHF) =  -76.2466569164     A.U. after    8 cycles
 SCF Done:  E(RHF) =  -76.2529043148     A.U. after    8 cycles
 SCF Done:  E(RHF) =  -76.2587280111     A.U. after    8 cycles
 SCF Done:  E(RHF) =  -76.2641450854     A.U. after    8 cycles
 SCF Done:  E(RHF) =  -76.2691717981     A.U. after    8 cycles
 SCF Done:  E(RHF) =  -76.3098910403     A.U. after    8 cycles
 SCF Done:  E(RHF) =  -76.3097289776     A.U. after    8 cycles
 SCF Done:  E(RHF) =  -76.3095638424     A.U. after    8 cycles
 SCF Done:  E(RHF) =  -76.3094037132     A.U. after    8 cycles
 SCF Done:  E(RHF) =  -76.3092557371     A.U. after    8 cycles
 SCF Done:  E(RHF) =  -76.3091260706     A.U. after    8 cycles
 SCF Done:  E(RHF) =  -76.3090198270     A.U. after    8 cycles
 SCF Done:  E(RHF) =  -76.3089410318     A.U. after    8 cycles
 SCF Done:  E(RHF) =  -76.3088925865     A.U. after    8 cycles

                         Standard orientation:
 ---------------------------------------------------------------------
 Center     Atomic      Atomic             Coordinates (Angstroms)
 Number     Number       Type             X           Y           Z
 ---------------------------------------------------------------------
      1          8           0        0.000000    0.000000    0.000000
      2          1           0        0.000000    0.961000    0.000000
      3          1           0        0.832250   -0.480500    0.000000
      4          1           0       -0.832250   -0.480500    0.000000
 ---------------------------------------------------------------------

 SCF Done:  E(RHF) =  -76.3088762429     A.U. after    5 cycles
 Normal termination of Gaussian 16 at Mon Apr 27 16:34:06 2020.
