 Gaussian 16, Revision A.03,
 Gaussian 16:  ES64L-G16RevA.03 25-Dec-2016

 ----------------------------------------------------------------------
 #p mp2/aug-cc-pvdz IOp(3/27=20,3/22=0) Guess=INDO scf=(NoVarAcc,MaxCyc
 le=512) Pop=NaturalSpinOrbitals Density=Current Polar
 ----------------------------------------------------------------------

 ---------------------
 Natural Spin Orbitals
 ---------------------
 Symbolic Z-matrix:
 Charge =  0 Multiplicity = 3

                         Standard orientation:
 ---------------------------------------------------------------------
 Center     Atomic      Atomic             Coordinates (Angstroms)
 Number     Number       Type             X           Y           Z
 ---------------------------------------------------------------------
      1          8           0        0.000000    0.000000    0.500000
      2          8           0        0.000000    0.000000   -0.500000
 ---------------------------------------------------------------------

 SCF Done:  E(UHF) =  -149.563006980     A.U. after   10 cycles
 E2 =    -0.3203240300D+00 EUMP2 =    -0.14988333100995D+03
 E2 =    -0.3203240300D+00 EUMP2 =    -0.14988333100995D+03

 Mulliken charges and spin densities:
               1          2
     1  O   -0.000000   1.000000
     2  O   -0.000000   1.000000
 Sum of Mulliken charges =  -0.00000   2.00000

 Dipole moment (field-independent basis, Debye):
    X=             -0.0000    Y=             -0.0000    Z=              0.0000  Tot=              0.0000
 Quadrupole moment (field-independent basis, Debye-Ang):
   XX=             -9.8814   YY=             -9.8814   ZZ=            -10.9740
   XY=              0.0000   XZ=              0.0000   YZ=              0.0000

  Exact polarizability:   6.891  -0.000   6.891  -0.000   0.000  11.319
 Approx polarizability:   5.764  -0.000   5.764  -0.000  -0.000   8.845

 Normal termination of Gaussian 16 at Wed Nov 21 00:23:23 2018.
