 Q-Chem 5.3 (devel), Q-Chem, Inc., Pleasanton, CA (2020)
 Q-Chem 5.3.0 for Intel X86 EM64T Linux

User input:
--------------------------------------------------------------
$comment
NH spin-orbit coupling calculation using SF-CISD/6-31g
SOC between S0 (Ms=0) and T1 (Ms=1) states
SOC(1e) = 114.38 cm(-1)
SOC(1e+2emf) = 64.97 cm(-1)
$end

$molecule
0 3
N 0.0000 0.0000 0.0000
H 0.0000 0.0000 1.9748
$end

$rem
jobtype = sp
method = eom-ccsd
basis = 6-31g
input_bohr = true
unrestricted = false
scf_guess = gwh

cc_max_iter = 0
n_frozen_core = 3
n_frozen_virtual = 6

sf_states = [1,2,0,0]
cc_trans_prop = true
calc_soc = 3
cc_state_to_opt = [1,1]
$end

--------------------------------------------------------------

   11     -54.9382257473      8.45e-09  Convergence criterion met
 Total energy in the final basis set =      -54.9382257473
 CCSD total energy          = -54.93822575
        Solving for EOMSF-CCSD A1 transitions.
 EOMSF transition 1/A1
 Total energy = -54.93822575 a.u.  Excitation energy = -0.0000 eV.
        Solving for EOMSF-CCSD A2 transitions.
 EOMSF transition 1/A2
 Total energy = -54.86853128 a.u.  Excitation energy = 1.8965 eV.
 EOMSF transition 2/A2
 Total energy = -54.79883682 a.u.  Excitation energy = 3.7930 eV.

             Orbital Energies (a.u.) and Symmetries
 --------------------------------------------------------------

 Alpha MOs, Restricted
 -- Doubly Occupied --
-15.644  -1.158  -0.582
  1 A1    2 A1    3 A1
 -- Singly Occupied (Occupied) --
 -0.537  -0.537
  1 B1    1 B2

 Beta MOs, Restricted
 -- Doubly Occupied --
-15.590  -0.935  -0.491
  1 A1    2 A1    3 A1
 -- Singly Occupied (Vacant) --
  0.190   0.190
  1 B1    1 B2

          Ground-State Mulliken Net Atomic Charges

     Atom                 Charge (a.u.)
  ----------------------------------------
      1 N                    -0.273805
      2 H                     0.273805
  ----------------------------------------
  Sum of atomic charges =     0.000000

                    Cartesian Multipole Moments
 -----------------------------------------------------------------
    Charge (ESU x 10^10)
                 0.0000
    Dipole Moment (Debye)
         X      -0.0000      Y       0.0000      Z       1.9066
       Tot       1.9066
    Quadrupole Moments (Debye-Ang)
        XX      -6.1765     XY      -0.0000     YY      -6.1765
        XZ      -0.0000     YZ       0.0000     ZZ      -5.9773

 Total job time:  3.50s(wall), 5.78s(cpu)
        *  Thank you very much for using Q-Chem.  Have a nice day.  *
