 Q-Chem 5.3, Q-Chem, Inc., Pleasanton, CA (2020)
 Q-Chem 5.3.1 for Intel X86 EM64T Linux

User input:
--------------------------------------------------------------

$molecule
0 3
O    0.0   0.0   1.21
$end

$rem
EXCHANGE         B3lyp
CIS_N_ROOTS      10
RPA              FALSE
BASIS            def2-tzvp
XC_GRID          1
PRINT_ORBITALS   TRUE
CISTR_PRINT      TRUE
$end

task dft energy

--------------------------------------------------------------

             Standard Nuclear Orientation (Angstroms)
    I     Atom           X                Y                Z
 ----------------------------------------------------------------
    1      O       0.0000000000     0.0000000000     0.0000000000
 ----------------------------------------------------------------

    9     -75.0962691857      7.88e-10  Convergence criterion met
 Total energy in the final basis set =      -75.0962691857

         TDDFT/TDA Excitation Energies
 ---------------------------------------------------

 Excited state   1: excitation energy (eV) =    0.3795
 Total energy for state  1:                   -75.08232299 au
    <S**2>     :  2.0069
    Trans. Mom.:  0.0000 X  -0.0000 Y  -0.0000 Z
    Strength   :     0.0000000000
    D(    3) --> S(    1) amplitude =  0.9977 beta

 Excited state   2: excitation energy (eV) =    0.3795
 Total energy for state  2:                   -75.08232298 au
    <S**2>     :  2.0069
    Trans. Mom.: -0.0000 X  -0.0000 Y  -0.0000 Z
    Strength   :     0.0000000000
    D(    3) --> S(    2) amplitude =  0.9977 beta

 Excited state   3: excitation energy (eV) =   15.8472
 Total energy for state  3:                   -74.51389684 au
    <S**2>     :  2.0044
    Trans. Mom.:  0.0000 X  -0.0000 Y   0.6312 Z
    Strength   :     0.1546738081
    D(    3) --> V(    1) amplitude = -0.1894 alpha
    D(    2) --> S(    1) amplitude =  0.9722 beta

 Excited state   4: excitation energy (eV) =   15.8472
 Total energy for state  4:                   -74.51389684 au
    <S**2>     :  2.0044
    Trans. Mom.: -0.6312 X   0.0000 Y   0.0000 Z
    Strength   :     0.1546738085
    S(    1) --> V(    1) amplitude =  0.1894 alpha
    D(    2) --> S(    2) amplitude =  0.9722 beta

 Excited state   5: excitation energy (eV) =   15.9767
 Total energy for state  5:                   -74.50913576 au
    <S**2>     :  3.9070
    Trans. Mom.: -0.0000 X  -0.1686 Y  -0.0000 Z
    Strength   :     0.0111288803
    S(    2) --> V(    1) amplitude =  0.5377 alpha
    D(    3) --> V(    1) amplitude =  0.8418 beta

 Excited state   6: excitation energy (eV) =   17.2209
 Total energy for state  6:                   -74.46341109 au
    <S**2>     :  2.0948
    Trans. Mom.:  0.0000 X   0.6750 Y   0.0000 Z
    Strength   :     0.1922582579
    S(    2) --> V(    1) amplitude =  0.8423 alpha
    D(    3) --> V(    1) amplitude = -0.5385 beta

 Excited state   7: excitation energy (eV) =   17.4497
 Total energy for state  7:                   -74.45500633 au
    <S**2>     :  3.8472
    Trans. Mom.:  0.0000 X  -0.0000 Y  -0.0000 Z
    Strength   :     0.0000000000
    S(    2) --> V(    4) amplitude = -0.5255 alpha
    D(    3) --> V(    2) amplitude =  0.8309 beta

 Excited state   8: excitation energy (eV) =   18.2071
 Total energy for state  8:                   -74.42716966 au
    <S**2>     :  3.9668
    Trans. Mom.: -0.0000 X  -0.0000 Y   0.0000 Z
    Strength   :     0.0000000000
    S(    2) --> V(    2) amplitude =  0.7614 alpha
    D(    3) --> V(    3) amplitude = -0.6391 beta

 Excited state   9: excitation energy (eV) =   18.2071
 Total energy for state  9:                   -74.42716965 au
    <S**2>     :  3.9668
    Trans. Mom.: -0.0000 X  -0.0000 Y   0.0000 Z
    Strength   :     0.0000000000
    S(    2) --> V(    3) amplitude =  0.7614 alpha
    D(    3) --> V(    4) amplitude = -0.6391 beta

 Excited state  10: excitation energy (eV) =   18.6728
 Total energy for state 10:                   -74.41005485 au
    <S**2>     :  2.0161
    Trans. Mom.: -0.0000 X   0.0000 Y   0.0000 Z
    Strength   :     0.0000000000
    S(    2) --> V(    2) amplitude =  0.6458 alpha
    D(    3) --> V(    3) amplitude =  0.7619 beta

 Excited state  11: excitation energy (eV) =   18.6728
 Total energy for state 11:                   -74.41005485 au
    <S**2>     :  2.0161
    Trans. Mom.:  0.0000 X  -0.0000 Y  -0.0000 Z
    Strength   :     0.0000000000
    S(    2) --> V(    3) amplitude =  0.6458 alpha
    D(    3) --> V(    4) amplitude =  0.7619 beta

 ---------------------------------------------------

                    Orbital Energies (a.u.)
 --------------------------------------------------------------

 Alpha MOs
 -- Occupied --
-19.2758  -1.0203  -0.4623  -0.4623  -0.3872

 Beta MOs
 -- Occupied --
-19.2244  -0.8619  -0.3368

          Ground-State Mulliken Net Atomic Charges

     Atom                 Charge (a.u.)    Spin (a.u.)
  --------------------------------------------------------
      1 O                    -0.000000       2.000000
  --------------------------------------------------------
  Sum of atomic charges =    -0.000000

                    Cartesian Multipole Moments
 -----------------------------------------------------------------
    Charge (ESU x 10^10)
                -0.0000
    Dipole Moment (Debye)
         X       0.0000      Y       0.0000      Z      -0.0000
       Tot       0.0000
    Quadrupole Moments (Debye-Ang)
        XX      -4.7059     XY      -0.0000     YY      -5.9450
        XZ       0.0000     YZ      -0.0000     ZZ      -4.7059

 STANDARD THERMODYNAMIC QUANTITIES AT   298.15 K  AND     1.00 ATM

   Translational Enthalpy:        0.889 kcal/mol
   Rotational Enthalpy:           0.000 kcal/mol
   Vibrational Enthalpy:          0.000 kcal/mol
   gas constant (RT):             0.592 kcal/mol
   Translational Entropy:        34.254  cal/mol.K
   Rotational Entropy:            0.000  cal/mol.K
   Vibrational Entropy:           0.000  cal/mol.K

   Total Enthalpy:                1.481 kcal/mol
   Total Entropy:                34.254  cal/mol.K

 Total job time:  1.73s(wall), 5.43s(cpu)
        *  Thank you very much for using Q-Chem.  Have a nice day.  *
