 Q-Chem 4.3, Q-Chem, Inc., Pleasanton, CA (2015)
 Q-Chem 4.3.0 for Intel X86 EM64T Linux

User input:
--------------------------------------------------------------
$rem
 jobtype force
 method hf
 basis 6-31g*
 symmetry false
 sym_ignore true
 ideriv 0
$end

$molecule
0 1
H     -0.5396003454    1.1649003260    0.0872286366
C      0.1788866951    0.5682133645    0.6252945742
C      1.1760899588   -0.1925516770   -0.1100290962
O      1.5080258155    1.0073321184    0.5338839151
H     -0.1327205638    0.2470104325    1.6053914340
C      1.2492222693   -0.1916255617   -1.6120028991
H      1.5882490302   -1.0662337231    0.3716124236
H      0.8139286891    0.7160013243   -2.0151045357
H      0.7172428607   -1.0464886824   -2.0201005727
H      2.2831855905   -0.2471579216   -1.9388238797
$end
--------------------------------------------------------------

   13    -191.9097265164      4.13E-09 Convergence criterion met
 Total energy in the final basis set = -191.9097265164
    9    -191.9097259767      3.15E-09 Convergence criterion met
 Total energy in the final basis set = -191.9097259767
    8    -191.9097262789      3.36E-09 Convergence criterion met
 Total energy in the final basis set = -191.9097262789
    9    -191.9097263991      3.28E-09 Convergence criterion met
 Total energy in the final basis set = -191.9097263991
    8    -191.9097272976      3.60E-09 Convergence criterion met
 Total energy in the final basis set = -191.9097272976
    8    -191.9097254191      6.46E-09 Convergence criterion met
 Total energy in the final basis set = -191.9097254191
    8    -191.9097235826      9.34E-09 Convergence criterion met
 Total energy in the final basis set = -191.9097235826
    9    -191.9097271718      5.93E-09 Convergence criterion met
 Total energy in the final basis set = -191.9097263279
    8    -191.9097265355      7.41E-09 Convergence criterion met
 Total energy in the final basis set = -191.9097265355
    8    -191.9097249885      5.72E-09 Convergence criterion met
 Total energy in the final basis set = -191.9097249885
    8    -191.9097270140      4.63E-09 Convergence criterion met
 Total energy in the final basis set = -191.9097270140
    8    -191.9097265149      2.23E-09 Convergence criterion met
 Total energy in the final basis set = -191.9097265149
    7    -191.9097265200      5.04E-09 Convergence criterion met
 Total energy in the final basis set = -191.9097265200
    8    -191.9097262380      3.15E-09 Convergence criterion met
 Total energy in the final basis set = -191.9097262380
    8    -191.9097266807      5.11E-09 Convergence criterion met
 Total energy in the final basis set = -191.9097266807

                    Orbital Energies (a.u.)
 --------------------------------------------------------------

 Alpha MOs
 -- Occupied --
-20.568 -11.284 -11.276 -11.222  -1.427  -1.012  -0.908  -0.819
 -0.703  -0.649  -0.589  -0.564  -0.526  -0.519  -0.440  -0.431

          Ground-State Mulliken Net Atomic Charges

     Atom                 Charge (a.u.)
  ----------------------------------------
      1 H                     0.174249
      2 C                    -0.099745
      3 C                     0.103188
      4 O                    -0.554075
      5 H                     0.176505
      6 C                    -0.500996
      7 H                     0.180288
      8 H                     0.177898
      9 H                     0.164119
     10 H                     0.178568
  ----------------------------------------
  Sum of atomic charges =     0.000000

                    Cartesian Multipole Moments
 -----------------------------------------------------------------
    Charge (ESU x 10^10)
                 0.0000
    Dipole Moment (Debye)
         X      -1.4653      Y      -1.5543      Z      -0.6980
       Tot       2.2472
    Quadrupole Moments (Debye-Ang)
        XX     -27.4992     XY      -4.0939     YY     -26.5114
        XZ      -2.2224     YZ      -1.0946     ZZ     -24.2540

             Standard Nuclear Orientation (Angstroms)
    I     Atom           X                Y                Z
 ----------------------------------------------------------------
    1      H      -0.5396003454     1.1649003260     0.0872286366
    2      C       0.1788866951     0.5682133645     0.6252945742
    3      C       1.1760899588    -0.1925516770    -0.1100290962
    4      O       1.5080258155     1.0073321184     0.5338839151
    5      H      -0.1327205638     0.2470104325     1.6053914340
    6      C       1.2492222693    -0.1916255617    -1.6120028991
    7      H       1.5882490302    -1.0662337231     0.3716124236
    8      H       0.8139286891     0.7160013243    -2.0151045357
    9      H       0.7172428607    -1.0464886824    -2.0201005727
   10      H       2.2831855905    -0.2471579216    -1.9388238797
 ----------------------------------------------------------------

 Total job time:  52.10s(wall), 56.12s(cpu)
        *  Thank you very much for using Q-Chem.  Have a nice day.  *
