 Q-Chem 4.3, Q-Chem, Inc., Pleasanton, CA (2015)
 Q-Chem 4.3.0 for Intel X86 EM64T Linux

User input:
--------------------------------------------------------------
$rem
 jobtype freq
 method rimp2
 basis 6-31g*
 aux_basis rimp2-cc-pvqz
 symmetry false
 sym_ignore true
 n_frozen_core fc
 ideriv 1
$end

$molecule
0 1
H     -0.5396003454    1.1649003260    0.0872286366
C      0.1788866951    0.5682133645    0.6252945742
C      1.1760899588   -0.1925516770   -0.1100290962
O      1.5080258155    1.0073321184    0.5338839151
H     -0.1327205638    0.2470104325    1.6053914340
C      1.2492222693   -0.1916255617   -1.6120028991
H      1.5882490302   -1.0662337231    0.3716124236
H      0.8139286891    0.7160013243   -2.0151045357
H      0.7172428607   -1.0464886824   -2.0201005727
H      2.2831855905   -0.2471579216   -1.9388238797
$end
--------------------------------------------------------------

   13    -191.9097266136      4.13E-09 Convergence criterion met
 Total energy in the final basis set = -191.9097266136
    8    -191.9097265128      6.07E-09 Convergence criterion met
 Total energy in the final basis set = -191.9097265128
    9    -191.9097259731      3.15E-09 Convergence criterion met
 Total energy in the final basis set = -191.9097259731
    8    -191.9097262753      3.36E-09 Convergence criterion met
 Total energy in the final basis set = -191.9097262753
    9    -191.9097263955      3.28E-09 Convergence criterion met
 Total energy in the final basis set = -191.9097263955
    8    -191.9097272940      3.60E-09 Convergence criterion met
 Total energy in the final basis set = -191.9097272940
    8    -191.9097254155      6.46E-09 Convergence criterion met
 Total energy in the final basis set = -191.9097254155
    8    -191.9097235790      9.34E-09 Convergence criterion met
 Total energy in the final basis set = -191.9097263243
    8    -191.9097265319      7.41E-09 Convergence criterion met
 Total energy in the final basis set = -191.9097265319
    8    -191.9097249849      5.72E-09 Convergence criterion met
 Total energy in the final basis set = -191.9097249849
    8    -191.9097270104      4.63E-09 Convergence criterion met
 Total energy in the final basis set = -191.9097270104
    8    -191.9097265113      2.23E-09 Convergence criterion met
 Total energy in the final basis set = -191.9097265113
    7    -191.9097265164      5.04E-09 Convergence criterion met
 Total energy in the final basis set = -191.9097265164
    8    -191.9097262344      3.15E-09 Convergence criterion met
 Total energy in the final basis set = -191.9097262344
    8    -191.9097266771      5.11E-09 Convergence criterion met
 Total energy in the final basis set = -191.9097266771

                    Orbital Energies (a.u.)
 --------------------------------------------------------------

 Alpha MOs
 -- Occupied --
-20.568 -11.284 -11.276 -11.222  -1.427  -1.012  -0.908  -0.819
 -0.703  -0.649  -0.589  -0.564  -0.526  -0.519  -0.440  -0.431

          Ground-State Mulliken Net Atomic Charges

     Atom                 Charge (a.u.)
  ----------------------------------------
      1 H                     0.166799
      2 C                    -0.140420
      3 C                     0.075632
      4 O                    -0.448067
      5 H                     0.168670
      6 C                    -0.511618
      7 H                     0.168276
      8 H                     0.175931
      9 H                     0.166409
     10 H                     0.178389
  ----------------------------------------
  Sum of atomic charges =     0.000000

                    Cartesian Multipole Moments
 -----------------------------------------------------------------
    Charge (ESU x 10^10)
                -0.0000
    Dipole Moment (Debye)
         X      -1.2524      Y      -1.3366      Z      -0.6448
       Tot       1.9419
    Quadrupole Moments (Debye-Ang)
        XX     -27.1855     XY      -3.6116     YY     -26.3635
        XZ      -2.0017     YZ      -0.9483     ZZ     -24.3055

             Standard Nuclear Orientation (Angstroms)
    I     Atom           X                Y                Z
 ----------------------------------------------------------------
    1      H      -0.5396003454     1.1649003260     0.0872286366
    2      C       0.1788866951     0.5682133645     0.6252945742
    3      C       1.1760899588    -0.1925516770    -0.1100290962
    4      O       1.5080258155     1.0073321184     0.5338839151
    5      H      -0.1327205638     0.2470104325     1.6053914340
    6      C       1.2492222693    -0.1916255617    -1.6120028991
    7      H       1.5882490302    -1.0662337231     0.3716124236
    8      H       0.8139286891     0.7160013243    -2.0151045357
    9      H       0.7172428607    -1.0464886824    -2.0201005727
   10      H       2.2831855905    -0.2471579216    -1.9388238797
 ----------------------------------------------------------------

 Frequency:      -151.29                 322.70                 383.52
 Force Cnst:      0.0147                 0.1426                 0.1931
 Red. Mass:       1.0918                 2.3235                 2.2282
 IR Intens:        0.549                  4.096                  4.218
 Frequency:       827.61                 902.80                 926.03
 Force Cnst:      0.8742                 0.5861                 1.3072
 Red. Mass:       2.1662                 1.2205                 2.5873
 IR Intens:        5.458                  0.261                 28.716
 Frequency:      1056.62                1058.78                1150.78
 Force Cnst:      0.8788                 1.5760                 1.0674
 Red. Mass:       1.3360                 2.3861                 1.3680
 IR Intens:        6.284                 17.654                  4.504
 Frequency:      1175.63                1194.14                1223.32
 Force Cnst:      1.1820                 1.6322                 1.6419
 Red. Mass:       1.4515                 1.9427                 1.8621
 IR Intens:        3.591                  2.952                  5.024
 Frequency:      1355.09                1447.06                1503.96
 Force Cnst:      1.4377                 1.5514                 2.0704
 Red. Mass:       1.3289                 1.2575                 1.5535
 IR Intens:        4.502                  4.612                 18.742
 Frequency:      1538.92                1553.25                1606.02
 Force Cnst:      1.4623                 1.4929                 2.8711
 Red. Mass:       1.0480                 1.0502                 1.8893
 IR Intens:        4.471                  5.759                  9.629
 Frequency:      3178.88                3262.81                3269.86
 Force Cnst:      6.1668                 6.5995                 6.9482
 Red. Mass:       1.0358                 1.0521                 1.1030
 IR Intens:       12.268                 20.583                 15.551
 Frequency:      3278.03                3293.17                3359.85
 Force Cnst:      6.9380                 7.0152                 7.4522
 Red. Mass:       1.0959                 1.0979                 1.1205
 IR Intens:        4.888                 34.928                 28.397

 STANDARD THERMODYNAMIC QUANTITIES FOR ANHARMONIC VIBRATION -- VPT2

   Zero point vibrational energy: ************ kcal/mol

   Vibrational Enthalpy:       Infinity kcal/mol
   Vibrational Entropy:             NaN  cal/mol.K

   Total Enthalpy:             Infinity kcal/mol
   Total Entropy:                   NaN  cal/mol.K

 Total job time:  233.82s(wall), 239.50s(cpu)
        *  Thank you very much for using Q-Chem.  Have a nice day.  *
