 Q-Chem 4.3, Q-Chem, Inc., Pleasanton, CA (2015)
 Q-Chem 4.3.0 for Intel X86 EM64T Linux

User input:
--------------------------------------------------------------
$rem
 jobtype freq
 method mp2
 basis 6-31g*
 symmetry false
 sym_ignore true
 n_frozen_core fc
 ideriv 1
$end

$molecule
0 1
H     -0.5396003454    1.1649003260    0.0872286366
C      0.1788866951    0.5682133645    0.6252945742
C      1.1760899588   -0.1925516770   -0.1100290962
O      1.5080258155    1.0073321184    0.5338839151
H     -0.1327205638    0.2470104325    1.6053914340
C      1.2492222693   -0.1916255617   -1.6120028991
H      1.5882490302   -1.0662337231    0.3716124236
H      0.8139286891    0.7160013243   -2.0151045357
H      0.7172428607   -1.0464886824   -2.0201005727
H      2.2831855905   -0.2471579216   -1.9388238797
$end
--------------------------------------------------------------

   13    -191.9097266136      4.13E-09 Convergence criterion met
 Total energy in the final basis set = -191.9097266136
        MP2         total energy =      -192.4754487446 au
    8    -191.9097265128      6.07E-09 Convergence criterion met
 Total energy in the final basis set = -191.9097265128
        MP2         total energy =      -192.4754369096 au
    9    -191.9097259731      3.15E-09 Convergence criterion met
 Total energy in the final basis set = -191.9097259731
        MP2         total energy =      -192.4754598673 au
    8    -191.9097262753      3.36E-09 Convergence criterion met
 Total energy in the final basis set = -191.9097262753
        MP2         total energy =      -192.4754551220 au
    9    -191.9097263955      3.28E-09 Convergence criterion met
 Total energy in the final basis set = -191.9097263955
        MP2         total energy =      -192.4754418396 au
    8    -191.9097270104      4.63E-09 Convergence criterion met
 Total energy in the final basis set = -191.9097270104
        MP2         total energy =      -192.4754381405 au
    8    -191.9097265113      2.23E-09 Convergence criterion met
 Total energy in the final basis set = -191.9097265113
        MP2         total energy =      -192.4754483136 au
    7    -191.9097265164      5.04E-09 Convergence criterion met
 Total energy in the final basis set = -191.9097265164
        MP2         total energy =      -192.4754490004 au
    8    -191.9097262344      3.15E-09 Convergence criterion met
 Total energy in the final basis set = -191.9097262344
        MP2         total energy =      -192.4754458904 au
    8    -191.9097266771      5.11E-09 Convergence criterion met
 Total energy in the final basis set = -191.9097266771
        MP2         total energy =      -192.4754513117 au

                    Orbital Energies (a.u.)
 --------------------------------------------------------------

 Alpha MOs
 -- Occupied --
-20.568 -11.284 -11.276 -11.222  -1.427  -1.012  -0.908  -0.819
 -0.703  -0.649  -0.589  -0.564  -0.526  -0.519  -0.440  -0.431

          Ground-State Mulliken Net Atomic Charges

     Atom                 Charge (a.u.)
  ----------------------------------------
      1 H                     0.166799
      2 C                    -0.140420
      3 C                     0.075631
      4 O                    -0.448066
      5 H                     0.168669
      6 C                    -0.511618
      7 H                     0.168276
      8 H                     0.175931
      9 H                     0.166409
     10 H                     0.178389
  ----------------------------------------
  Sum of atomic charges =     0.000000

                    Cartesian Multipole Moments
 -----------------------------------------------------------------
    Charge (ESU x 10^10)
                -0.0000
    Dipole Moment (Debye)
         X      -1.2524      Y      -1.3366      Z      -0.6448
       Tot       1.9419
    Quadrupole Moments (Debye-Ang)
        XX     -27.1855     XY      -3.6116     YY     -26.3635
        XZ      -2.0017     YZ      -0.9483     ZZ     -24.3055

             Standard Nuclear Orientation (Angstroms)
    I     Atom           X                Y                Z
 ----------------------------------------------------------------
    1      H      -0.5396003454     1.1649003260     0.0872286366
    2      C       0.1788866951     0.5682133645     0.6252945742
    3      C       1.1760899588    -0.1925516770    -0.1100290962
    4      O       1.5080258155     1.0073321184     0.5338839151
    5      H      -0.1327205638     0.2470104325     1.6053914340
    6      C       1.2492222693    -0.1916255617    -1.6120028991
    7      H       1.5882490302    -1.0662337231     0.3716124236
    8      H       0.8139286891     0.7160013243    -2.0151045357
    9      H       0.7172428607    -1.0464886824    -2.0201005727
   10      H       2.2831855905    -0.2471579216    -1.9388238797
 ----------------------------------------------------------------

 Frequency:      -151.18                 322.73                 383.80
 Force Cnst:      0.0147                 0.1424                 0.1935
 Red. Mass:       1.0920                 2.3207                 2.2297
 IR Intens:        0.546                  4.062                  4.232
 Frequency:       827.66                 902.96                 926.34
 Force Cnst:      0.8751                 0.5867                 1.3049
 Red. Mass:       2.1683                 1.2213                 2.5810
 IR Intens:        5.525                  0.253                 28.549
 Frequency:      1056.95                1058.74                1150.71
 Force Cnst:      0.8506                 1.6760                 1.0674
 Red. Mass:       1.2923                 2.5378                 1.3682
 IR Intens:        6.747                 17.253                  4.591
 Frequency:      1175.71                1194.42                1223.14
 Force Cnst:      1.1821                 1.6332                 1.6430
 Red. Mass:       1.4515                 1.9430                 1.8639
 IR Intens:        3.583                  2.951                  5.053
 Frequency:      1354.68                1446.60                1504.00
 Force Cnst:      1.4379                 1.5501                 2.0627
 Red. Mass:       1.3299                 1.2572                 1.5477
 IR Intens:        4.487                  4.600                 18.655
 Frequency:      1538.88                1553.29                1606.01
 Force Cnst:      1.4621                 1.4932                 2.8799
 Red. Mass:       1.0479                 1.0504                 1.8951
 IR Intens:        4.480                  5.778                  9.754
 Frequency:      3178.80                3262.88                3269.98
 Force Cnst:      6.1664                 6.6000                 6.9486
 Red. Mass:       1.0358                 1.0522                 1.1029
 IR Intens:       12.224                 20.572                 15.726
 Frequency:      3278.10                3292.85                3359.56
 Force Cnst:      6.9377                 7.0142                 7.4511
 Red. Mass:       1.0958                 1.0980                 1.1205
 IR Intens:        4.983                 34.863                 28.292

 STANDARD THERMODYNAMIC QUANTITIES FOR ANHARMONIC VIBRATION -- VPT2

   Zero point vibrational energy: ************ kcal/mol

   Vibrational Enthalpy:       Infinity kcal/mol
   Vibrational Entropy:             NaN  cal/mol.K

   Total Enthalpy:             Infinity kcal/mol
   Total Entropy:                   NaN  cal/mol.K

 Total job time:  200.04s(wall), 205.93s(cpu)
        *  Thank you very much for using Q-Chem.  Have a nice day.  *
