 Q-Chem 4.3, Q-Chem, Inc., Pleasanton, CA (2015)
 Q-Chem 4.3.0 for Intel X86 EM64T Linux

User input:
--------------------------------------------------------------
$rem
 jobtype freq
 method hf
 basis 6-31g*
 symmetry false
 sym_ignore true
 ideriv 1
$end

$molecule
0 1
H     -0.5396003454    1.1649003260    0.0872286366
C      0.1788866951    0.5682133645    0.6252945742
C      1.1760899588   -0.1925516770   -0.1100290962
O      1.5080258155    1.0073321184    0.5338839151
H     -0.1327205638    0.2470104325    1.6053914340
C      1.2492222693   -0.1916255617   -1.6120028991
H      1.5882490302   -1.0662337231    0.3716124236
H      0.8139286891    0.7160013243   -2.0151045357
H      0.7172428607   -1.0464886824   -2.0201005727
H      2.2831855905   -0.2471579216   -1.9388238797
$end
--------------------------------------------------------------

   13    -191.9097266136      4.13E-09 Convergence criterion met
 Total energy in the final basis set = -191.9097266136
    8    -191.9097265128      6.07E-09 Convergence criterion met
 Total energy in the final basis set = -191.9097265128
    9    -191.9097259731      3.15E-09 Convergence criterion met
 Total energy in the final basis set = -191.9097259731
    8    -191.9097262753      3.36E-09 Convergence criterion met
 Total energy in the final basis set = -191.9097262753
    9    -191.9097263955      3.28E-09 Convergence criterion met
 Total energy in the final basis set = -191.9097263955
    8    -191.9097272940      3.60E-09 Convergence criterion met
 Total energy in the final basis set = -191.9097272940
    8    -191.9097254155      6.46E-09 Convergence criterion met
 Total energy in the final basis set = -191.9097254155
    8    -191.9097235790      9.34E-09 Convergence criterion met
 Total energy in the final basis set = -191.9097263243
    8    -191.9097265319      7.41E-09 Convergence criterion met
 Total energy in the final basis set = -191.9097265319
    8    -191.9097249849      5.72E-09 Convergence criterion met
 Total energy in the final basis set = -191.9097249849
    8    -191.9097270104      4.63E-09 Convergence criterion met
 Total energy in the final basis set = -191.9097270104
    8    -191.9097265113      2.23E-09 Convergence criterion met
 Total energy in the final basis set = -191.9097265113
    7    -191.9097265164      5.04E-09 Convergence criterion met
 Total energy in the final basis set = -191.9097265164
    8    -191.9097262344      3.15E-09 Convergence criterion met
 Total energy in the final basis set = -191.9097262344
    8    -191.9097266771      5.11E-09 Convergence criterion met
 Total energy in the final basis set = -191.9097266771

                    Orbital Energies (a.u.)
 --------------------------------------------------------------

 Alpha MOs
 -- Occupied --
-20.568 -11.284 -11.276 -11.222  -1.427  -1.012  -0.908  -0.819
 -0.703  -0.649  -0.589  -0.564  -0.526  -0.519  -0.440  -0.431

          Ground-State Mulliken Net Atomic Charges

     Atom                 Charge (a.u.)
  ----------------------------------------
      1 H                     0.174249
      2 C                    -0.099745
      3 C                     0.103188
      4 O                    -0.554075
      5 H                     0.176505
      6 C                    -0.500996
      7 H                     0.180288
      8 H                     0.177898
      9 H                     0.164119
     10 H                     0.178568
  ----------------------------------------
  Sum of atomic charges =     0.000000

                    Cartesian Multipole Moments
 -----------------------------------------------------------------
    Charge (ESU x 10^10)
                 0.0000
    Dipole Moment (Debye)
         X      -1.4653      Y      -1.5543      Z      -0.6980
       Tot       2.2472
    Quadrupole Moments (Debye-Ang)
        XX     -27.4992     XY      -4.0939     YY     -26.5114
        XZ      -2.2224     YZ      -1.0946     ZZ     -24.2540

             Standard Nuclear Orientation (Angstroms)
    I     Atom           X                Y                Z
 ----------------------------------------------------------------
    1      H      -0.5396003454     1.1649003260     0.0872286366
    2      C       0.1788866951     0.5682133645     0.6252945742
    3      C       1.1760899588    -0.1925516770    -0.1100290962
    4      O       1.5080258155     1.0073321184     0.5338839151
    5      H      -0.1327205638     0.2470104325     1.6053914340
    6      C       1.2492222693    -0.1916255617    -1.6120028991
    7      H       1.5882490302    -1.0662337231     0.3716124236
    8      H       0.8139286891     0.7160013243    -2.0151045357
    9      H       0.7172428607    -1.0464886824    -2.0201005727
   10      H       2.2831855905    -0.2471579216    -1.9388238797
 ----------------------------------------------------------------

 Frequency:       233.36                 398.12                 443.07
 Force Cnst:      0.0352                 0.2166                 0.2876
 Red. Mass:       1.0956                 2.3196                 2.4868
 IR Intens:        0.714                  4.371                  6.021
 Frequency:       863.35                 956.91                 997.08
 Force Cnst:      1.1996                 1.7125                 0.7009
 Red. Mass:       2.7315                 3.1743                 1.1966
 IR Intens:        6.983                 48.056                  2.576
 Frequency:      1084.87                1149.26                1248.79
 Force Cnst:      2.1036                 0.9239                 1.3045
 Red. Mass:       3.0335                 1.1872                 1.4198
 IR Intens:       21.283                  8.037                  9.165
 Frequency:      1278.65                1300.60                1324.26
 Force Cnst:      1.6962                 1.3494                 1.6612
 Red. Mass:       1.7609                 1.3540                 1.6078
 IR Intens:        5.077                  0.909                  8.230
 Frequency:      1416.61                1550.28                1598.74
 Force Cnst:      1.8003                 1.7985                 2.2227
 Red. Mass:       1.5227                 1.2701                 1.4760
 IR Intens:        6.853                  5.685                 17.142
 Frequency:      1628.73                1641.38                1697.94
 Force Cnst:      1.6424                 1.6866                 2.6197
 Red. Mass:       1.0508                 1.0626                 1.5423
 IR Intens:        2.847                  4.329                  8.501
 Frequency:      3202.88                3263.83                3277.77
 Force Cnst:      6.2664                 6.9217                 6.9524
 Red. Mass:       1.0368                 1.1028                 1.0983
 IR Intens:       24.546                 34.551                  4.251
 Frequency:      3288.95                3308.07                3375.09
 Force Cnst:      6.7268                 7.0420                 7.5225
 Red. Mass:       1.0555                 1.0922                 1.1208
 IR Intens:       42.947                 45.768                 42.819

 STANDARD THERMODYNAMIC QUANTITIES FOR ANHARMONIC VIBRATION -- VPT2

   Zero point vibrational energy: ************ kcal/mol

   Vibrational Enthalpy:       Infinity kcal/mol
   Vibrational Entropy:             NaN  cal/mol.K

   Total Enthalpy:             Infinity kcal/mol
   Total Entropy:                   NaN  cal/mol.K

 Total job time:  98.92s(wall), 103.41s(cpu)
        *  Thank you very much for using Q-Chem.  Have a nice day.  *
