 Q-Chem 4.3, Q-Chem, Inc., Pleasanton, CA (2015)
 Q-Chem 4.3.0 for Intel X86 EM64T Linux

User input:
--------------------------------------------------------------
$rem
 jobtype force
 method mp2
 basis 6-31g*
 symmetry false
 sym_ignore true
 n_frozen_core fc
$end

$molecule
0 1
H     -0.5396003454    1.1649003260    0.0872286366
C      0.1788866951    0.5682133645    0.6252945742
C      1.1760899588   -0.1925516770   -0.1100290962
O      1.5080258155    1.0073321184    0.5338839151
H     -0.1327205638    0.2470104325    1.6053914340
C      1.2492222693   -0.1916255617   -1.6120028991
H      1.5882490302   -1.0662337231    0.3716124236
H      0.8139286891    0.7160013243   -2.0151045357
H      0.7172428607   -1.0464886824   -2.0201005727
H      2.2831855905   -0.2471579216   -1.9388238797
$end
--------------------------------------------------------------

             Standard Nuclear Orientation (Angstroms)
    I     Atom           X                Y                Z
 ----------------------------------------------------------------
    1      H      -0.5396003454     1.1649003260     0.0872286366
    2      C       0.1788866951     0.5682133645     0.6252945742
    3      C       1.1760899588    -0.1925516770    -0.1100290962
    4      O       1.5080258155     1.0073321184     0.5338839151
    5      H      -0.1327205638     0.2470104325     1.6053914340
    6      C       1.2492222693    -0.1916255617    -1.6120028991
    7      H       1.5882490302    -1.0662337231     0.3716124236
    8      H       0.8139286891     0.7160013243    -2.0151045357
    9      H       0.7172428607    -1.0464886824    -2.0201005727
   10      H       2.2831855905    -0.2471579216    -1.9388238797
 ----------------------------------------------------------------

   13    -191.9097266173      4.13E-09 Convergence criterion met
 Total energy in the final basis set = -191.9097266173
        MP2         total energy =      -192.4754487481 au

                    Orbital Energies (a.u.)
 --------------------------------------------------------------

 Alpha MOs
 -- Occupied --
-20.568 -11.284 -11.276 -11.222  -1.427  -1.012  -0.908  -0.819
 -0.703  -0.649  -0.589  -0.564  -0.526  -0.519  -0.440  -0.431

          Ground-State Mulliken Net Atomic Charges

     Atom                 Charge (a.u.)
  ----------------------------------------
      1 H                     0.166789
      2 C                    -0.140419
      3 C                     0.075563
      4 O                    -0.448073
      5 H                     0.168661
      6 C                    -0.511573
      7 H                     0.168271
      8 H                     0.175932
      9 H                     0.166412
     10 H                     0.178438
  ----------------------------------------
  Sum of atomic charges =    -0.000000

                    Cartesian Multipole Moments
 -----------------------------------------------------------------
    Charge (ESU x 10^10)
                -0.0000
    Dipole Moment (Debye)
         X      -1.2522      Y      -1.3367      Z      -0.6448
       Tot       1.9418
    Quadrupole Moments (Debye-Ang)
        XX     -27.1842     XY      -3.6117     YY     -26.3633
        XZ      -2.0005     YZ      -0.9484     ZZ     -24.3071

 Total job time:  3.89s(wall), 3.93s(cpu)
        *  Thank you very much for using Q-Chem.  Have a nice day.  *
