 Q-Chem 4.3, Q-Chem, Inc., Pleasanton, CA (2015)
 Q-Chem 4.3.0 for Intel X86 EM64T Linux

User input:
--------------------------------------------------------------
$rem
 jobtype freq
 method ccsd
 basis 6-31g*
 symmetry false
 sym_ignore true
 cc_symmetry false
 n_frozen_core fc
 ideriv 1
$end

$molecule
0 1
H     -0.5396003454    1.1649003260    0.0872286366
C      0.1788866951    0.5682133645    0.6252945742
C      1.1760899588   -0.1925516770   -0.1100290962
O      1.5080258155    1.0073321184    0.5338839151
H     -0.1327205638    0.2470104325    1.6053914340
C      1.2492222693   -0.1916255617   -1.6120028991
H      1.5882490302   -1.0662337231    0.3716124236
H      0.8139286891    0.7160013243   -2.0151045357
H      0.7172428607   -1.0464886824   -2.0201005727
H      2.2831855905   -0.2471579216   -1.9388238797
$end
--------------------------------------------------------------

   13    -191.9097266136      4.13E-09 Convergence criterion met
 Total energy in the final basis set = -191.9097266136
 CCSD total energy           = -192.51037270
    8    -191.9097265127      6.07E-09 Convergence criterion met
 Total energy in the final basis set = -191.9097265127
 CCSD total energy           = -192.51035862
    9    -191.9097259730      3.15E-09 Convergence criterion met
 Total energy in the final basis set = -191.9097259730
 CCSD total energy           = -192.51038607
    8    -191.9097262753      3.36E-09 Convergence criterion met
 Total energy in the final basis set = -191.9097262753
 CCSD total energy           = -192.51038086
    9    -191.9097263954      3.28E-09 Convergence criterion met
 Total energy in the final basis set = -191.9097263954
 CCSD total energy           = -192.51036401
    8    -191.9097270104      4.63E-09 Convergence criterion met
 Total energy in the final basis set = -191.9097270104
 CCSD total energy           = -192.51035865
    8    -191.9097265112      2.23E-09 Convergence criterion met
 Total energy in the final basis set = -191.9097265112
 CCSD total energy           = -192.51037204
    7    -191.9097265163      5.04E-09 Convergence criterion met
 Total energy in the final basis set = -191.9097265163
 CCSD total energy           = -192.51037319
    8    -191.9097262343      3.15E-09 Convergence criterion met
 Total energy in the final basis set = -191.9097262343
 CCSD total energy           = -192.51036851
    8    -191.9097266770      5.11E-09 Convergence criterion met
 Total energy in the final basis set = -191.9097266770
 CCSD total energy           = -192.51037660

                    Orbital Energies (a.u.)
 --------------------------------------------------------------

 Alpha MOs
 -- Occupied --
-20.568 -11.284 -11.276 -11.222  -1.427  -1.012  -0.908  -0.819
 -0.703  -0.649  -0.589  -0.564  -0.526  -0.519  -0.440  -0.431

          Ground-State Mulliken Net Atomic Charges

     Atom                 Charge (a.u.)
  ----------------------------------------
      1 H                     0.162084
      2 C                    -0.119213
      3 C                     0.083889
      4 O                    -0.468471
      5 H                     0.164177
      6 C                    -0.489599
      7 H                     0.164309
      8 H                     0.170182
      9 H                     0.160040
     10 H                     0.172602
  ----------------------------------------
  Sum of atomic charges =    -0.000000

                    Cartesian Multipole Moments
 -----------------------------------------------------------------
    Charge (ESU x 10^10)
                 0.0000
    Dipole Moment (Debye)
         X      -1.2929      Y      -1.3828      Z      -0.6547
       Tot       2.0031
    Quadrupole Moments (Debye-Ang)
        XX     -27.2325     XY      -3.6912     YY     -26.3782
        XZ      -2.0386     YZ      -0.9738     ZZ     -24.2906

             Standard Nuclear Orientation (Angstroms)
    I     Atom           X                Y                Z
 ----------------------------------------------------------------
    1      H      -0.5396003454     1.1649003260     0.0872286366
    2      C       0.1788866951     0.5682133645     0.6252945742
    3      C       1.1760899588    -0.1925516770    -0.1100290962
    4      O       1.5080258155     1.0073321184     0.5338839151
    5      H      -0.1327205638     0.2470104325     1.6053914340
    6      C       1.2492222693    -0.1916255617    -1.6120028991
    7      H       1.5882490302    -1.0662337231     0.3716124236
    8      H       0.8139286891     0.7160013243    -2.0151045357
    9      H       0.7172428607    -1.0464886824    -2.0201005727
   10      H       2.2831855905    -0.2471579216    -1.9388238797
 ----------------------------------------------------------------

 Frequency:      -214.87                 317.87                 377.90
 Force Cnst:      0.0296                 0.1347                 0.1862
 Red. Mass:       1.0892                 2.2620                 2.2132
 IR Intens:        0.548                  3.795                  4.638
 Frequency:       824.94                 893.33                 924.42
 Force Cnst:      0.8546                 0.5760                 1.2288
 Red. Mass:       2.1314                 1.2251                 2.4406
 IR Intens:        5.273                  0.241                 29.185
 Frequency:      1049.15                1059.80                1146.44
 Force Cnst:      0.7628                 2.0669                 1.0727
 Red. Mass:       1.1763                 3.1234                 1.3853
 IR Intens:        8.762                 14.533                  4.929
 Frequency:      1172.95                1192.45                1225.16
 Force Cnst:      1.1685                 1.6375                 1.7275
 Red. Mass:       1.4415                 1.9546                 1.9534
 IR Intens:        3.616                  3.046                  7.631
 Frequency:      1349.71                1438.98                1499.81
 Force Cnst:      1.4207                 1.5407                 1.8857
 Red. Mass:       1.3236                 1.2629                 1.4228
 IR Intens:        4.910                  4.312                 16.087
 Frequency:      1524.10                1538.40                1606.28
 Force Cnst:      1.4357                 1.4693                 3.3146
 Red. Mass:       1.0491                 1.0537                 2.1804
 IR Intens:        4.108                  5.321                 12.464
 Frequency:      3169.44                3248.99                3252.85
 Force Cnst:      6.1324                 6.8566                 6.5710
 Red. Mass:       1.0361                 1.1025                 1.0540
 IR Intens:       14.917                 19.042                 21.899
 Frequency:      3260.59                3277.44                3341.85
 Force Cnst:      6.8693                 6.9259                 7.3687
 Red. Mass:       1.0967                 1.0944                 1.1199
 IR Intens:        6.811                 40.653                 32.769

 STANDARD THERMODYNAMIC QUANTITIES FOR ANHARMONIC VIBRATION -- VPT2

   Zero point vibrational energy: ************ kcal/mol

   Vibrational Enthalpy:       Infinity kcal/mol
   Vibrational Entropy:             NaN  cal/mol.K

   Total Enthalpy:             Infinity kcal/mol
   Total Entropy:                   NaN  cal/mol.K

 Total job time:  0x1.5f72a8ed84ap+11s(wall), 0x1.6047fdb2b3461p+11s(cpu)
        *  Thank you very much for using Q-Chem.  Have a nice day.  *
