                         Program Version 4.1.x  -  STABLE  -
|  1> ! RKS BP86 RI ZORA-Def2-TZVP SARC/J Grid4 NoFinalGrid ZORA
|  2> ! TightSCF SlowConv
|  3> ! NormalPrint ReducedPop
|  4> %pal nprocs 12 end
|  5> %maxcore 4500
|  6> %method
|  7>         SpecialGridAtoms    20
|  8>         SpecialGridIntAcc   7
|  9>         end
| 10> %xes
| 11>         CoreOrb         0
| 12>         DoQuadrupole    False
| 13>         end
| 14> % pointcharges "pc.pc"
| 15> * xyz -4 1
| 16> Ca         0.00000        0.00000        0.00000
| 17> Cl         1.40400        1.12500        2.10000
| 18> Cl        -1.40400       -1.12500        2.10000
| 19> Cl        -1.71600        2.09000        0.00000
| 20> Cl         1.40400        1.12500       -2.10000
| 21> Cl        -1.40400       -1.12500       -2.10000
| 22> Cl         1.71600       -2.09000       -0.00000
| 23> Ca>	1.82574	        -3.12000        3.21500        6.30000 NewECP "SDD" end
| 24> Ca>	1.82574	         3.12000        3.21500        6.30000 NewECP "SDD" end
| 25> Ca>	1.82574	        -3.12000       -3.21500        6.30000 NewECP "SDD" end
| 26> Ca>	1.82574	         3.12000       -3.21500        6.30000 NewECP "SDD" end
| 27> Ca>	1.82574	        -3.12000        3.21500        2.10000 NewECP "SDD" end
| 28> Ca>	1.82574	         0.00000        6.43000        4.20000 NewECP "SDD" end
| 29> Ca>	1.82574	         3.12000        3.21500        2.10000 NewECP "SDD" end
| 30> Ca>	1.82574	        -6.24000       -0.00000        4.20000 NewECP "SDD" end
| 31> Ca>	1.82574	        -3.12000       -3.21500        2.10000 NewECP "SDD" end
| 32> Ca>	1.82574	         0.00000       -0.00000        4.20000 NewECP "SDD" end
| 33> Ca>	1.82574	         3.12000       -3.21500        2.10000 NewECP "SDD" end
| 34> Ca>	1.82574	         6.24000       -0.00000        4.20000 NewECP "SDD" end
| 35> Ca>	1.82574	         0.00000       -6.43000        4.20000 NewECP "SDD" end
| 36> Ca>	1.82574	        -3.12000        3.21500       -2.10000 NewECP "SDD" end
| 37> Ca>	1.82574	         0.00000        6.43000       -0.00000 NewECP "SDD" end
| 38> Ca>	1.82574	         3.12000        3.21500       -2.10000 NewECP "SDD" end
| 39> Ca>	1.82574	        -6.24000       -0.00000       -0.00000 NewECP "SDD" end
| 40> Ca>	1.82574	        -3.12000       -3.21500       -2.10000 NewECP "SDD" end
| 41> Ca>	1.82574	         3.12000       -3.21500       -2.10000 NewECP "SDD" end
| 42> Ca>	1.82574	         6.24000        0.00000        0.00000 NewECP "SDD" end
| 43> Ca>	1.82574	        -0.00000       -6.43000        0.00000 NewECP "SDD" end
| 44> Ca>	1.82574	        -3.12000        3.21500       -6.30000 NewECP "SDD" end
| 45> Ca>	1.82574	        -0.00000        6.43000       -4.20000 NewECP "SDD" end
| 46> Ca>	1.82574	         3.12000        3.21500       -6.30000 NewECP "SDD" end
| 47> Ca>	1.82574	        -6.24000        0.00000       -4.20000 NewECP "SDD" end
| 48> Ca>	1.82574	        -3.12000       -3.21500       -6.30000 NewECP "SDD" end
| 49> Ca>	1.82574	        -0.00000        0.00000       -4.20000 NewECP "SDD" end
| 50> Ca>	1.82574	         3.12000       -3.21500       -6.30000 NewECP "SDD" end
| 51> Ca>	1.82574	         6.24000        0.00000       -4.20000 NewECP "SDD" end
| 52> Ca>	1.82574	        -0.00000       -6.43000       -4.20000 NewECP "SDD" end
| 53> Cl>	-0.91093	         1.40400        1.12500        6.30000 NewECP "SDD" end
| 54> Cl>	-0.91093	        -1.40400       -1.12500        6.30000 NewECP "SDD" end
| 55> Cl>	-0.91093	         1.40400        7.55500        2.10000 NewECP "SDD" end
| 56> Cl>	-0.91093	        -4.52400        4.34000        4.20000 NewECP "SDD" end
| 57> Cl>	-0.91093	        -1.71600        2.09000        4.20000 NewECP "SDD" end
| 58> Cl>	-0.91093	        -4.83600        1.12500        2.10000 NewECP "SDD" end
| 59> Cl>	-0.91093	        -1.40400        5.30500        2.10000 NewECP "SDD" end
| 60> Cl>	-0.91093	         1.71600        4.34000        4.20000 NewECP "SDD" end
| 61> Cl>	-0.91093	         4.52400        2.09000        4.20000 NewECP "SDD" end
| 62> Cl>	-0.91093	         4.83600        5.30500        2.10000 NewECP "SDD" end
| 63> Cl>	-0.91093	        -4.52400       -2.09000        4.20000 NewECP "SDD" end
| 64> Cl>	-0.91093	        -1.71600       -4.34000        4.20000 NewECP "SDD" end
| 65> Cl>	-0.91093	        -4.83600       -5.30500        2.10000 NewECP "SDD" end
| 66> Cl>	-0.91093	         1.71600       -2.09000        4.20000 NewECP "SDD" end
| 67> Cl>	-0.91093	         4.52400       -4.34000        4.20000 NewECP "SDD" end
| 68> Cl>	-0.91093	         1.40400       -5.30500        2.10000 NewECP "SDD" end
| 69> Cl>	-0.91093	         4.83600       -1.12500        2.10000 NewECP "SDD" end
| 70> Cl>	-0.91093	        -1.40400       -7.55500        2.10000 NewECP "SDD" end
| 71> Cl>	-0.91093	         1.40400        7.55500       -2.10000 NewECP "SDD" end
| 72> Cl>	-0.91093	        -4.52400        4.34000       -0.00000 NewECP "SDD" end
| 73> Cl>	-0.91093	        -4.83600        1.12500       -2.10000 NewECP "SDD" end
| 74> Cl>	-0.91093	        -1.40400        5.30500       -2.10000 NewECP "SDD" end
| 75> Cl>	-0.91093	         1.71600        4.34000       -0.00000 NewECP "SDD" end
| 76> Cl>	-0.91093	         4.52400        2.09000        0.00000 NewECP "SDD" end
| 77> Cl>	-0.91093	         4.83600        5.30500       -2.10000 NewECP "SDD" end
| 78> Cl>	-0.91093	        -4.52400       -2.09000       -0.00000 NewECP "SDD" end
| 79> Cl>	-0.91093	        -1.71600       -4.34000        0.00000 NewECP "SDD" end
| 80> Cl>	-0.91093	        -4.83600       -5.30500       -2.10000 NewECP "SDD" end
| 81> Cl>	-0.91093	         4.52400       -4.34000        0.00000 NewECP "SDD" end
| 82> Cl>	-0.91093	         1.40400       -5.30500       -2.10000 NewECP "SDD" end
| 83> Cl>	-0.91093	         4.83600       -1.12500       -2.10000 NewECP "SDD" end
| 84> Cl>	-0.91093	        -1.40400       -7.55500       -2.10000 NewECP "SDD" end
| 85> Cl>	-0.91093	        -4.52400        4.34000       -4.20000 NewECP "SDD" end
| 86> Cl>	-0.91093	        -1.71600        2.09000       -4.20000 NewECP "SDD" end
| 87> Cl>	-0.91093	         1.71600        4.34000       -4.20000 NewECP "SDD" end
| 88> Cl>	-0.91093	         4.52400        2.09000       -4.20000 NewECP "SDD" end
| 89> Cl>	-0.91093	         1.40400        1.12500       -6.30000 NewECP "SDD" end
| 90> Cl>	-0.91093	        -4.52400       -2.09000       -4.20000 NewECP "SDD" end
| 91> Cl>	-0.91093	        -1.71600       -4.34000       -4.20000 NewECP "SDD" end
| 92> Cl>	-0.91093	        -1.40400       -1.12500       -6.30000 NewECP "SDD" end
| 93> Cl>	-0.91093	         1.71600       -2.09000       -4.20000 NewECP "SDD" end
| 94> Cl>	-0.91093	         4.52400       -4.34000       -4.20000 NewECP "SDD" end
| 95> *
| 96>
| 97>                          ****END OF INPUT****

CARTESIAN COORDINATES (ANGSTROEM)
---------------------------------
  Ca     0.000000    0.000000    0.000000
  Cl     1.404000    1.125000    2.100000
  Cl    -1.404000   -1.125000    2.100000
  Cl    -1.716000    2.090000    0.000000
  Cl     1.404000    1.125000   -2.100000
  Cl    -1.404000   -1.125000   -2.100000
  Cl     1.716000   -2.090000   -0.000000
  Ca>   -3.120000    3.215000    6.300000
  Ca>    3.120000    3.215000    6.300000
  Ca>   -3.120000   -3.215000    6.300000
  Ca>    3.120000   -3.215000    6.300000
  Ca>   -3.120000    3.215000    2.100000
  Ca>    0.000000    6.430000    4.200000
  Ca>    3.120000    3.215000    2.100000
  Ca>   -6.240000   -0.000000    4.200000
  Ca>   -3.120000   -3.215000    2.100000
  Ca>    0.000000   -0.000000    4.200000
  Ca>    3.120000   -3.215000    2.100000
  Ca>    6.240000   -0.000000    4.200000
  Ca>    0.000000   -6.430000    4.200000
  Ca>   -3.120000    3.215000   -2.100000
  Ca>    0.000000    6.430000   -0.000000
  Ca>    3.120000    3.215000   -2.100000
  Ca>   -6.240000   -0.000000   -0.000000
  Ca>   -3.120000   -3.215000   -2.100000
  Ca>    3.120000   -3.215000   -2.100000
  Ca>    6.240000    0.000000    0.000000
  Ca>   -0.000000   -6.430000    0.000000
  Ca>   -3.120000    3.215000   -6.300000
  Ca>   -0.000000    6.430000   -4.200000
  Ca>    3.120000    3.215000   -6.300000
  Ca>   -6.240000    0.000000   -4.200000
  Ca>   -3.120000   -3.215000   -6.300000
  Ca>   -0.000000    0.000000   -4.200000
  Ca>    3.120000   -3.215000   -6.300000
  Ca>    6.240000    0.000000   -4.200000
  Ca>   -0.000000   -6.430000   -4.200000
  Cl>    1.404000    1.125000    6.300000
  Cl>   -1.404000   -1.125000    6.300000
  Cl>    1.404000    7.555000    2.100000
  Cl>   -4.524000    4.340000    4.200000
  Cl>   -1.716000    2.090000    4.200000
  Cl>   -4.836000    1.125000    2.100000
  Cl>   -1.404000    5.305000    2.100000
  Cl>    1.716000    4.340000    4.200000
  Cl>    4.524000    2.090000    4.200000
  Cl>    4.836000    5.305000    2.100000
  Cl>   -4.524000   -2.090000    4.200000
  Cl>   -1.716000   -4.340000    4.200000
  Cl>   -4.836000   -5.305000    2.100000
  Cl>    1.716000   -2.090000    4.200000
  Cl>    4.524000   -4.340000    4.200000
  Cl>    1.404000   -5.305000    2.100000
  Cl>    4.836000   -1.125000    2.100000
  Cl>   -1.404000   -7.555000    2.100000
  Cl>    1.404000    7.555000   -2.100000
  Cl>   -4.524000    4.340000   -0.000000
  Cl>   -4.836000    1.125000   -2.100000
  Cl>   -1.404000    5.305000   -2.100000
  Cl>    1.716000    4.340000   -0.000000
  Cl>    4.524000    2.090000    0.000000
  Cl>    4.836000    5.305000   -2.100000
  Cl>   -4.524000   -2.090000   -0.000000
  Cl>   -1.716000   -4.340000    0.000000
  Cl>   -4.836000   -5.305000   -2.100000
  Cl>    4.524000   -4.340000    0.000000
  Cl>    1.404000   -5.305000   -2.100000
  Cl>    4.836000   -1.125000   -2.100000
  Cl>   -1.404000   -7.555000   -2.100000
  Cl>   -4.524000    4.340000   -4.200000
  Cl>   -1.716000    2.090000   -4.200000
  Cl>    1.716000    4.340000   -4.200000
  Cl>    4.524000    2.090000   -4.200000
  Cl>    1.404000    1.125000   -6.300000
  Cl>   -4.524000   -2.090000   -4.200000
  Cl>   -1.716000   -4.340000   -4.200000
  Cl>   -1.404000   -1.125000   -6.300000
  Cl>    1.716000   -2.090000   -4.200000
  Cl>    4.524000   -4.340000   -4.200000

 Total Charge           Charge          ....   -4
 Multiplicity           Mult            ....    1
 Number of Electrons    NEL             ....  126
 Basis Dimension        Dim             ....  268

ORBITAL ENERGIES
----------------

  NO   OCC          E(Eh)            E(eV)
   0   2.0000    -145.941712     -3971.2759
   1   2.0000    -101.532710     -2762.8455
   2   2.0000    -101.532710     -2762.8455
   3   2.0000    -101.532708     -2762.8454
   4   2.0000    -101.532707     -2762.8454
   5   2.0000    -101.530626     -2762.7888
   6   2.0000    -101.530624     -2762.7887
   7   2.0000     -15.250364      -414.9835
   8   2.0000     -12.321706      -335.2907
   9   2.0000     -12.321618      -335.2883
  10   2.0000     -12.321547      -335.2863
  11   2.0000      -9.290811      -252.8158
  12   2.0000      -9.290810      -252.8158
  13   2.0000      -9.290808      -252.8157
  14   2.0000      -9.290807      -252.8157
  15   2.0000      -9.289019      -252.7671
  16   2.0000      -9.289017      -252.7670
  17   2.0000      -7.047232      -191.7649
  18   2.0000      -7.047232      -191.7649
  19   2.0000      -7.047231      -191.7649
  20   2.0000      -7.047231      -191.7649
  21   2.0000      -7.045935      -191.7296
  22   2.0000      -7.045934      -191.7296
  23   2.0000      -7.045934      -191.7296
  24   2.0000      -7.045933      -191.7296
  25   2.0000      -7.045013      -191.7045
  26   2.0000      -7.045013      -191.7045
  27   2.0000      -7.044507      -191.6908
  28   2.0000      -7.044507      -191.6908
  29   2.0000      -7.044173      -191.6817
  30   2.0000      -7.044173      -191.6817
  31   2.0000      -7.044173      -191.6817
  32   2.0000      -7.044173      -191.6817
  33   2.0000      -7.042368      -191.6326
  34   2.0000      -7.042367      -191.6326
  35   2.0000      -1.732752       -47.1506
  36   2.0000      -1.035829       -28.1863
  37   2.0000      -1.035447       -28.1759
  38   2.0000      -1.034965       -28.1628
  39   2.0000      -0.787740       -21.4355
  40   2.0000      -0.783300       -21.3147
  41   2.0000      -0.781177       -21.2569
  42   2.0000      -0.781101       -21.2548
  43   2.0000      -0.780056       -21.2264
  44   2.0000      -0.779653       -21.2154
  45   2.0000      -0.400158       -10.8889
  46   2.0000      -0.393419       -10.7055
  47   2.0000      -0.383687       -10.4406
  48   2.0000      -0.369970       -10.0674
  49   2.0000      -0.369805       -10.0629
  50   2.0000      -0.365758        -9.9528
  51   2.0000      -0.364174        -9.9097
  52   2.0000      -0.363814        -9.8999
  53   2.0000      -0.363747        -9.8981
  54   2.0000      -0.358703        -9.7608
  55   2.0000      -0.355442        -9.6721
  56   2.0000      -0.350930        -9.5493
  57   2.0000      -0.345296        -9.3960
  58   2.0000      -0.334499        -9.1022
  59   2.0000      -0.331839        -9.0298
  60   2.0000      -0.330645        -8.9973
  61   2.0000      -0.330159        -8.9841
  62   2.0000      -0.321904        -8.7594
  63   0.0000      -0.070346        -1.9142
  64   0.0000      -0.067781        -1.8444
  65   0.0000      -0.066270        -1.8033
  66   0.0000      -0.060782        -1.6540
  67   0.0000      -0.033569        -0.9135

MULLIKEN ATOMIC CHARGES
-----------------------
   0 Ca:    1.596255
   1 Cl:   -0.920067
   2 Cl:   -0.920066
   3 Cl:   -0.957994
   4 Cl:   -0.920067
   5 Cl:   -0.920066
   6 Cl:   -0.957994
   7 Q :    1.825740
   8 Q :    1.825740
   9 Q :    1.825740
  10 Q :    1.825740
  11 Q :    1.825740
  12 Q :    1.825740
  13 Q :    1.825740
  14 Q :    1.825740
  15 Q :    1.825740
  16 Q :    1.825740
  17 Q :    1.825740
  18 Q :    1.825740
  19 Q :    1.825740
  20 Q :    1.825740
  21 Q :    1.825740
  22 Q :    1.825740
  23 Q :    1.825740
  24 Q :    1.825740
  25 Q :    1.825740
  26 Q :    1.825740
  27 Q :    1.825740
  28 Q :    1.825740
  29 Q :    1.825740
  30 Q :    1.825740
  31 Q :    1.825740
  32 Q :    1.825740
  33 Q :    1.825740
  34 Q :    1.825740
  35 Q :    1.825740
  36 Q :    1.825740
  37 Q :   -0.910930
  38 Q :   -0.910930
  39 Q :   -0.910930
  40 Q :   -0.910930
  41 Q :   -0.910930
  42 Q :   -0.910930
  43 Q :   -0.910930
  44 Q :   -0.910930
  45 Q :   -0.910930
  46 Q :   -0.910930
  47 Q :   -0.910930
  48 Q :   -0.910930
  49 Q :   -0.910930
  50 Q :   -0.910930
  51 Q :   -0.910930
  52 Q :   -0.910930
  53 Q :   -0.910930
  54 Q :   -0.910930
  55 Q :   -0.910930
  56 Q :   -0.910930
  57 Q :   -0.910930
  58 Q :   -0.910930
  59 Q :   -0.910930
  60 Q :   -0.910930
  61 Q :   -0.910930
  62 Q :   -0.910930
  63 Q :   -0.910930
  64 Q :   -0.910930
  65 Q :   -0.910930
  66 Q :   -0.910930
  67 Q :   -0.910930
  68 Q :   -0.910930
  69 Q :   -0.910930
  70 Q :   -0.910930
  71 Q :   -0.910930
  72 Q :   -0.910930
  73 Q :   -0.910930
  74 Q :   -0.910930
  75 Q :   -0.910930
  76 Q :   -0.910930
  77 Q :   -0.910930
  78 Q :   -0.910930
Sum of atomic charges:   12.5131400

LOEWDIN ATOMIC CHARGES
----------------------
   0 Ca:   -0.765297
   1 Cl:   -0.540948
   2 Cl:   -0.540948
   3 Cl:   -0.535456
   4 Cl:   -0.540948
   5 Cl:   -0.540948
   6 Cl:   -0.535455
   7 Q :    1.825740
   8 Q :    1.825740
   9 Q :    1.825740
  10 Q :    1.825740
  11 Q :    1.825740
  12 Q :    1.825740
  13 Q :    1.825740
  14 Q :    1.825740
  15 Q :    1.825740
  16 Q :    1.825740
  17 Q :    1.825740
  18 Q :    1.825740
  19 Q :    1.825740
  20 Q :    1.825740
  21 Q :    1.825740
  22 Q :    1.825740
  23 Q :    1.825740
  24 Q :    1.825740
  25 Q :    1.825740
  26 Q :    1.825740
  27 Q :    1.825740
  28 Q :    1.825740
  29 Q :    1.825740
  30 Q :    1.825740
  31 Q :    1.825740
  32 Q :    1.825740
  33 Q :    1.825740
  34 Q :    1.825740
  35 Q :    1.825740
  36 Q :    1.825740
  37 Q :   -0.910930
  38 Q :   -0.910930
  39 Q :   -0.910930
  40 Q :   -0.910930
  41 Q :   -0.910930
  42 Q :   -0.910930
  43 Q :   -0.910930
  44 Q :   -0.910930
  45 Q :   -0.910930
  46 Q :   -0.910930
  47 Q :   -0.910930
  48 Q :   -0.910930
  49 Q :   -0.910930
  50 Q :   -0.910930
  51 Q :   -0.910930
  52 Q :   -0.910930
  53 Q :   -0.910930
  54 Q :   -0.910930
  55 Q :   -0.910930
  56 Q :   -0.910930
  57 Q :   -0.910930
  58 Q :   -0.910930
  59 Q :   -0.910930
  60 Q :   -0.910930
  61 Q :   -0.910930
  62 Q :   -0.910930
  63 Q :   -0.910930
  64 Q :   -0.910930
  65 Q :   -0.910930
  66 Q :   -0.910930
  67 Q :   -0.910930
  68 Q :   -0.910930
  69 Q :   -0.910930
  70 Q :   -0.910930
  71 Q :   -0.910930
  72 Q :   -0.910930
  73 Q :   -0.910930
  74 Q :   -0.910930
  75 Q :   -0.910930
  76 Q :   -0.910930
  77 Q :   -0.910930
  78 Q :   -0.910930

  Mayer bond orders larger than 0.1
B(  0-Ca,  1-Cl) :   0.1599 B(  0-Ca,  2-Cl) :   0.1599 B(  0-Ca,  4-Cl) :   0.1599
B(  0-Ca,  5-Cl) :   0.1599

FINAL SINGLE POINT ENERGY     -3485.768263973041

DIPOLE MOMENT
-------------
                                X             Y             Z
Electronic contribution:     -0.00000      -0.00001      -0.00000
Nuclear contribution   :     -0.00000       0.00000      -0.00000
                        -----------------------------------------
Total Dipole Moment    :     -0.00000      -0.00001      -0.00000
                        -----------------------------------------
Magnitude (a.u.)       :      0.00001
Magnitude (Debye)      :      0.00002

Rotational constants in cm-1:     0.017245     0.015553     0.014730
Rotational constants in MHz :   516.990480   466.281613   441.582824

-------------------------------------------------------------------------------------
          X-RAY ABSORPTION SPECTRUM VIA TRANSITION ELECTRIC DIPOLE MOMENTS
-------------------------------------------------------------------------------------
       Transition          Energy           INT             TX        TY        TZ
                            (eV)        (normalized)       (au)      (au)      (au)
-------------------------------------------------------------------------------------
    1    0a ->   63a      3969.362     0.000000000000     0.00000   0.00000  -0.00000
    2    0a ->   64a      3969.431     0.000000000000     0.00000  -0.00000  -0.00000
    3    0a ->   65a      3969.473     0.000000000000    -0.00000  -0.00000  -0.00000
    4    0a ->   66a      3969.622     0.000000000000     0.00000  -0.00000  -0.00000
    5    0a ->   67a      3970.362     0.000000000000     0.00000   0.00000   0.00000
    6    0a ->   68a      3970.486     0.000000000000     0.00000  -0.00000  -0.00000
    7    0a ->   69a      3970.676     0.001429236141    -0.00000  -0.00000   0.00147
    8    0a ->   70a      3970.775     0.001638703849     0.00115  -0.00108   0.00000
    9    0a ->   71a      3971.175     0.002366435247     0.00129   0.00139   0.00000
   10    0a ->   72a      3972.158     0.000000000000     0.00000   0.00000   0.00000
   11    0a ->   73a      3972.701     0.000000000000    -0.00000  -0.00000  -0.00000
   12    0a ->   74a      3973.174     0.000000000003     0.00000  -0.00000  -0.00000
   13    0a ->   75a      3973.198     0.005432378889     0.00000   0.00000  -0.00287
   14    0a ->   76a      3973.601     0.006157785425     0.00212   0.00221   0.00000
   15    0a ->   77a      3974.053     0.006806781012     0.00238  -0.00216   0.00000
   16    0a ->   78a      3974.790     0.000000000000    -0.00000  -0.00000   0.00000
   17    0a ->   79a      3975.008     0.000000000000    -0.00000   0.00000  -0.00000
   18    0a ->   80a      3975.351     0.000000000000     0.00000   0.00000   0.00000
   19    0a ->   81a      3975.490     0.000000000000    -0.00000  -0.00000   0.00000
   20    0a ->   82a      3975.672     0.000641918710    -0.00000  -0.00000   0.00099
   21    0a ->   83a      3976.230     0.000046366898     0.00003   0.00026  -0.00000
   22    0a ->   84a      3976.295     0.000000000000    -0.00000  -0.00000   0.00000
   23    0a ->   85a      3976.524     0.001137968840    -0.00000  -0.00000  -0.00131
   24    0a ->   86a      3976.533     0.000000000000     0.00000  -0.00000   0.00000
   25    0a ->   87a      3976.673     0.000000000000     0.00000   0.00000  -0.00000
   26    0a ->   88a      3976.805     0.000025914437     0.00017  -0.00010  -0.00000
   27    0a ->   89a      3977.369     0.000656199123     0.00066   0.00075  -0.00000
   28    0a ->   90a      3977.484     0.000000000000     0.00000   0.00000  -0.00000
   29    0a ->   91a      3978.157     0.000904374595     0.00000  -0.00000   0.00117
   30    0a ->   92a      3978.211     0.000000000001    -0.00000  -0.00000  -0.00000
   31    0a ->   93a      3978.281     0.000000000000     0.00000  -0.00000  -0.00000
   32    0a ->   94a      3978.381     0.002181820857    -0.00000  -0.00000   0.00182
   33    0a ->   95a      3978.514     0.002513848441     0.00119   0.00155   0.00000
   34    0a ->   96a      3978.563     0.000022043041     0.00000   0.00000  -0.00018
   35    0a ->   97a      3978.625     0.000000000000    -0.00000   0.00000  -0.00000
   36    0a ->   98a      3978.923     0.003656712780    -0.00176   0.00156   0.00000
   37    0a ->   99a      3978.985     0.000000000006    -0.00000   0.00000   0.00000
   38    0a ->  100a      3979.575     0.000128312846     0.00041  -0.00016   0.00000
   39    0a ->  101a      3979.620     0.000000000000    -0.00000  -0.00000  -0.00000
   40    0a ->  102a      3979.718     0.000000033253    -0.00000  -0.00000   0.00001
   41    0a ->  103a      3979.736     0.000446540047    -0.00049  -0.00066  -0.00000
   42    0a ->  104a      3979.814     0.000000000000    -0.00000  -0.00000   0.00000
   43    0a ->  105a      3979.849     0.000000000000    -0.00000   0.00000   0.00000
   44    0a ->  106a      3979.958     0.000000000045     0.00000  -0.00000  -0.00000
   45    0a ->  107a      3979.961     0.000114708983     0.00027  -0.00032  -0.00000
   46    0a ->  108a      3980.016     0.000024814199     0.00000   0.00000   0.00019
   47    0a ->  109a      3980.501     0.000698796597    -0.00000   0.00000   0.00103
   48    0a ->  110a      3980.557     0.000000000000     0.00000   0.00000   0.00000
   49    0a ->  111a      3980.579     0.000000000000     0.00000   0.00000   0.00000
   50    0a ->  112a      3981.242     0.000031418393    -0.00010  -0.00019  -0.00000
   51    0a ->  113a      3981.448     0.000006738933     0.00000   0.00000  -0.00010
   52    0a ->  114a      3981.755     0.000000000000     0.00000   0.00000  -0.00000
   53    0a ->  115a      3982.341     0.000000000000    -0.00000   0.00000   0.00000
   54    0a ->  116a      3982.473     0.000033755133     0.00021   0.00008  -0.00000
   55    0a ->  117a      3982.659     0.000060395440     0.00014  -0.00027   0.00000
   56    0a ->  118a      3982.693     0.001509577495    -0.00000   0.00000   0.00151
   57    0a ->  119a      3982.925     0.000000000000    -0.00000   0.00000  -0.00000
   58    0a ->  120a      3983.889     0.003031412357    -0.00000   0.00000  -0.00214
   59    0a ->  121a      3984.272     0.005330839050     0.00190  -0.00212  -0.00000
   60    0a ->  122a      3984.348     0.000000000000    -0.00000  -0.00000  -0.00000
   61    0a ->  123a      3984.600     0.004529250121     0.00196   0.00174   0.00000
   62    0a ->  124a      3984.808     0.000000000000     0.00000   0.00000  -0.00000
   63    0a ->  125a      3985.051     0.000000000000    -0.00000   0.00000   0.00000
   64    0a ->  126a      3987.037     0.000000000000    -0.00000   0.00000   0.00000
   65    0a ->  127a      3987.105     0.000000000000    -0.00000  -0.00000  -0.00000
   66    0a ->  128a      3988.644     0.000000000000     0.00000  -0.00000  -0.00000
   67    0a ->  129a      3992.511     0.006357396351    -0.00228  -0.00210  -0.00000
   68    0a ->  130a      3993.316     0.026255567524     0.00000   0.00000  -0.00630
   69    0a ->  131a      3993.335     0.027447483217    -0.00484  -0.00425  -0.00000
   70    0a ->  132a      3993.557     0.000000000003     0.00000   0.00000   0.00000
   71    0a ->  133a      3993.786     0.018641206722    -0.00375   0.00376   0.00000
   72    0a ->  134a      3993.971     0.000000000002     0.00000  -0.00000   0.00000
   73    0a ->  135a      3993.974     0.000000000009    -0.00000   0.00000  -0.00000
   74    0a ->  136a      3994.003     0.014225252319    -0.00280   0.00369  -0.00000
   75    0a ->  137a      3994.564     0.006816027535     0.00000  -0.00000   0.00321
   76    0a ->  138a      4004.562     0.000000000000     0.00000  -0.00000   0.00000
   77    0a ->  139a      4004.664     0.000000000000     0.00000   0.00000  -0.00000
   78    0a ->  140a      4004.862     0.000000000000    -0.00000   0.00000  -0.00000
   79    0a ->  141a      4005.793     0.000000000000     0.00000   0.00000   0.00000
   80    0a ->  142a      4006.038     0.000000000000    -0.00000  -0.00000   0.00000
   81    0a ->  143a      4008.239     0.000000000000    -0.00000  -0.00000  -0.00000
   82    0a ->  144a      4012.877     0.000002552310     0.00000  -0.00000   0.00006
   83    0a ->  145a      4013.895     0.000000227680    -0.00000  -0.00000   0.00002
   84    0a ->  146a      4013.915     0.000007385008    -0.00004  -0.00010  -0.00000
   85    0a ->  147a      4013.982     0.000018760453     0.00015   0.00008   0.00000
   86    0a ->  148a      4014.433     0.000000000000    -0.00000   0.00000   0.00000
   87    0a ->  149a      4014.441     0.000000000000    -0.00000   0.00000  -0.00000
   88    0a ->  150a      4014.492     0.000006376296    -0.00005   0.00008  -0.00000
   89    0a ->  151a      4014.557     0.000000861263    -0.00000  -0.00000  -0.00004
   90    0a ->  152a      4014.667     0.000000000006    -0.00000  -0.00000   0.00000
   91    0a ->  153a      4014.673     0.000017344662    -0.00000   0.00000   0.00016
   92    0a ->  154a      4014.793     0.000000000000    -0.00000  -0.00000  -0.00000
   93    0a ->  155a      4015.270     0.000000000000     0.00000   0.00000   0.00000
   94    0a ->  156a      4015.291     0.000000876837    -0.00000  -0.00000   0.00004
   95    0a ->  157a      4015.320     0.000075075203     0.00027   0.00020  -0.00000
   96    0a ->  158a      4015.454     0.000000000000    -0.00000  -0.00000   0.00000
   97    0a ->  159a      4015.537     0.000000000000    -0.00000   0.00000   0.00000
   98    0a ->  160a      4016.148     0.000000000000    -0.00000  -0.00000  -0.00000
   99    0a ->  161a      4017.010     0.000000000000     0.00000   0.00000   0.00000
  100    0a ->  162a      4017.126     0.002376896545    -0.00000  -0.00000   0.00189
  101    0a ->  163a      4017.188     0.002304269619     0.00138   0.00125   0.00000
  102    0a ->  164a      4017.521     0.001836258738     0.00114  -0.00121   0.00000
  103    0a ->  165a      4018.853     0.000000000000    -0.00000  -0.00000   0.00000
  104    0a ->  166a      4019.299     0.000271262729     0.00035   0.00053  -0.00000
  105    0a ->  167a      4019.363     0.000399165588    -0.00000  -0.00000  -0.00077
  106    0a ->  168a      4019.500     0.000317165117     0.00055  -0.00042   0.00000
  107    0a ->  169a      4019.507     0.000000000023     0.00000  -0.00000   0.00000
  108    0a ->  170a      4019.541     0.000000000000     0.00000  -0.00000   0.00000
  109    0a ->  171a      4019.659     0.000000000000     0.00000  -0.00000  -0.00000
  110    0a ->  172a      4020.953     0.000000000000    -0.00000  -0.00000  -0.00000
  111    0a ->  173a      4021.182     0.000000000000     0.00000  -0.00000  -0.00000
  112    0a ->  174a      4023.618     0.000000000000    -0.00000  -0.00000   0.00000
  113    0a ->  175a      4023.626     0.000002247993    -0.00000  -0.00000  -0.00006
  114    0a ->  176a      4023.738     0.000106912228    -0.00031  -0.00025   0.00000
  115    0a ->  177a      4023.847     0.000000000468    -0.00000  -0.00000  -0.00000
  116    0a ->  178a      4023.848     0.000073284719    -0.00000  -0.00000   0.00033
  117    0a ->  179a      4023.880     0.000000000001    -0.00000  -0.00000   0.00000
  118    0a ->  180a      4023.883     0.000049798964     0.00019   0.00019   0.00000
  119    0a ->  181a      4023.963     0.000000005219    -0.00000  -0.00000  -0.00000
  120    0a ->  182a      4024.017     0.000009883840     0.00011  -0.00005   0.00000
  121    0a ->  183a      4024.021     0.000000000002    -0.00000   0.00000  -0.00000
  122    0a ->  184a      4024.030     0.000063611778     0.00013  -0.00028   0.00000
  123    0a ->  185a      4024.060     0.000002106586    -0.00000   0.00000   0.00006
  124    0a ->  186a      4024.069     0.000002392053    -0.00000   0.00000  -0.00006
  125    0a ->  187a      4024.082     0.000000000000    -0.00000   0.00000   0.00000
  126    0a ->  188a      4024.136     0.000000000000     0.00000   0.00000   0.00000
  127    0a ->  189a      4024.143     0.000000000000     0.00000   0.00000   0.00000
  128    0a ->  190a      4024.192     0.000005661403    -0.00001   0.00009  -0.00000
  129    0a ->  191a      4024.248     0.000000000001    -0.00000  -0.00000  -0.00000
  130    0a ->  192a      4024.260     0.000060012858     0.00024   0.00017  -0.00000
  131    0a ->  193a      4024.260     0.000009533131    -0.00000  -0.00000  -0.00012
  132    0a ->  194a      4024.332     0.000000000000     0.00000   0.00000  -0.00000
  133    0a ->  195a      4024.353     0.000001528932     0.00000   0.00000   0.00005
  134    0a ->  196a      4024.353     0.000000000000     0.00000   0.00000  -0.00000
  135    0a ->  197a      4024.369     0.000000000000    -0.00000  -0.00000   0.00000
  136    0a ->  198a      4024.372     0.000002679391     0.00000   0.00000   0.00006
  137    0a ->  199a      4024.399     0.000000490181    -0.00002   0.00002   0.00000
  138    0a ->  200a      4024.484     0.000000000000    -0.00000  -0.00000  -0.00000
  139    0a ->  201a      4024.485     0.000000000000     0.00000   0.00000   0.00000
  140    0a ->  202a      4024.550     0.000000000000    -0.00000  -0.00000  -0.00000
  141    0a ->  203a      4024.619     0.000000000000     0.00000  -0.00000  -0.00000
  142    0a ->  204a      4024.983     0.000011532483    -0.00013   0.00000  -0.00000
  143    0a ->  205a      4025.092     0.000000000000    -0.00000  -0.00000  -0.00000
  144    0a ->  206a      4025.447     0.007146573538     0.00248   0.00213   0.00000
  145    0a ->  207a      4025.479     0.000008954900     0.00000   0.00000  -0.00012
  146    0a ->  208a      4025.532     0.000223051767     0.00018  -0.00055  -0.00000
  147    0a ->  209a      4025.800     0.000000000000    -0.00000  -0.00000   0.00000
  148    0a ->  210a      4025.862     0.000000000000     0.00000   0.00000  -0.00000
  149    0a ->  211a      4026.165     0.011673879199     0.00000  -0.00000   0.00419
  150    0a ->  212a      4026.391     0.010540265982    -0.00263   0.00298  -0.00000
  151    0a ->  213a      4026.518     0.000000000000     0.00000  -0.00000  -0.00000
  152    0a ->  214a      4029.009     0.000496099753     0.00051   0.00069   0.00000
  153    0a ->  215a      4029.126     0.000641587316     0.00075  -0.00063  -0.00000
  154    0a ->  216a      4029.227     0.000287534062     0.00000  -0.00000   0.00066
  155    0a ->  217a      4029.387     0.000000000000    -0.00000  -0.00000   0.00000
  156    0a ->  218a      4029.467     0.000010666952    -0.00000   0.00000   0.00013
  157    0a ->  219a      4029.816     0.000014741498     0.00011   0.00009  -0.00000
  158    0a ->  220a      4030.048     0.000000000000     0.00000   0.00000  -0.00000
  159    0a ->  221a      4030.067     0.000000000000    -0.00000  -0.00000   0.00000
  160    0a ->  222a      4030.090     0.000000538128     0.00000   0.00000  -0.00003
  161    0a ->  223a      4030.164     0.000000000000     0.00000  -0.00000  -0.00000
  162    0a ->  224a      4030.526     0.000000000000     0.00000   0.00000  -0.00000
  163    0a ->  225a      4030.539     0.000000000000     0.00000   0.00000  -0.00000
  164    0a ->  226a      4031.176     0.000000000000    -0.00000   0.00000  -0.00000
  165    0a ->  227a      4031.443     0.000000000000    -0.00000  -0.00000   0.00000
  166    0a ->  228a      4031.536     0.000000000000    -0.00000   0.00000   0.00000
  167    0a ->  229a      4032.355     0.000000000000    -0.00000  -0.00000   0.00000
  168    0a ->  230a      4032.820     0.000102318561    -0.00022  -0.00032   0.00000
  169    0a ->  231a      4033.203     0.000142529972    -0.00035   0.00030   0.00000
  170    0a ->  232a      4033.352     0.000169076335    -0.00000  -0.00000  -0.00050
  171    0a ->  233a      4033.448     0.000000000000     0.00000   0.00000  -0.00000
  172    0a ->  234a      4080.997     0.248513103475     0.01431   0.01277  -0.00000
  173    0a ->  235a      4082.515     0.246162853945    -0.01271   0.01424   0.00000
  174    0a ->  236a      4082.781     0.245518668675    -0.00000   0.00000  -0.01906
  175    0a ->  237a      4106.172     0.000008977739     0.00008   0.00008   0.00000
  176    0a ->  238a      4107.368     0.000069318830    -0.00021   0.00024   0.00000
  177    0a ->  239a      4107.459     0.000096263949    -0.00000   0.00000  -0.00038
  178    0a ->  240a      4109.652     0.000000000000     0.00000   0.00000  -0.00000
  179    0a ->  241a      4110.144     0.000000000000    -0.00000  -0.00000   0.00000
  180    0a ->  242a      4110.561     0.000000000000    -0.00000   0.00000  -0.00000
  181    0a ->  243a      4197.219     0.000000000000    -0.00000   0.00000   0.00000
  182    0a ->  244a      4559.321     0.000000025037    -0.00000  -0.00000  -0.00000
  183    0a ->  245a      4560.407     0.000000285384     0.00001  -0.00001  -0.00000
  184    0a ->  246a      4560.509     0.000000731427    -0.00000   0.00000  -0.00003
  185    0a ->  247a      4562.507     0.000000000000    -0.00000  -0.00000   0.00000
  186    0a ->  248a      4562.998     0.000000000000     0.00000   0.00000  -0.00000
  187    0a ->  249a      4563.268     0.000000000000     0.00000  -0.00000  -0.00000
  188    0a ->  250a      4803.161     0.000000000000    -0.00000  -0.00000   0.00000
  189    0a ->  251a      5986.063     0.995365990115    -0.02373  -0.02101   0.00000
  190    0a ->  252a      5988.088     0.999436569249    -0.02105   0.02378   0.00000
  191    0a ->  253a      5988.384     1.000000000000     0.00000  -0.00000   0.03176
  192    0a ->  254a      7696.636     0.000000019320    -0.00000  -0.00000  -0.00000
  193    0a ->  255a      7697.582     0.000000570544     0.00001  -0.00002  -0.00000
  194    0a ->  256a      7697.707     0.000001459730     0.00000  -0.00000   0.00003
  195    0a ->  257a      7699.336     0.000000000000    -0.00000  -0.00000   0.00000
  196    0a ->  258a      7699.689     0.000000000000    -0.00000  -0.00000   0.00000

                             ****ORCA TERMINATED NORMALLY****
TOTAL RUN TIME: 0 days 0 hours 0 minutes 19 seconds 848 msec
