                         Program Version 4.1.0  - RELEASE  -
|  1> !B3LYP Def2-SVP Opt SlowConv CHELPG
|  2> %base "SVP"
|  3>
|  4> %pal
|  5>  nprocs 8
|  6> end
|  7>
|  8> *xyzfile -1 1 somewhere.xyz
|  9>
| 10> $new_job
| 11> !B3LYP Def2-TZVP Opt SlowConv CHELPG MORead
| 12> %moinp "SVP.gbw"
| 13> %base "TZVP"
| 14>
| 15> %pal
| 16>  nprocs 8
| 17> end
| 18>
| 19> *xyzfile -1 1
| 20>
| 21> $new_job
| 22> !B3LYP Def2-TZVP TightOpt SlowConv TightSCF Grid7 CHELPG MORead NumFreq
| 23> %moinp "TZVP.gbw"
| 24> %base "NumFreq"
| 25> %pal
| 26>  nprocs 8
| 27> end
| 28>
| 29> %freq
| 30>  Increment 0.001
| 31> end
| 32>
| 33> *xyzfile -1 1
| 34>
| 35>                          ****END OF INPUT****
 Total Charge           Charge          ....   -1
 Multiplicity           Mult            ....    1
 Number of Electrons    NEL             ....   44
FINAL SINGLE POINT ENERGY      -264.591195762150
FINAL SINGLE POINT ENERGY      -264.596519700462
FINAL SINGLE POINT ENERGY      -264.597676086214
FINAL SINGLE POINT ENERGY      -264.598010141648
FINAL SINGLE POINT ENERGY      -264.598105437495
FINAL SINGLE POINT ENERGY      -264.598165612016
FINAL SINGLE POINT ENERGY      -264.598219533334
FINAL SINGLE POINT ENERGY      -264.598301262993
FINAL SINGLE POINT ENERGY      -264.598416563486
FINAL SINGLE POINT ENERGY      -264.598560011634
                    ***********************HURRAY********************
FINAL SINGLE POINT ENERGY      -264.598658642006
FINAL SINGLE POINT ENERGY      -264.904098474584
FINAL SINGLE POINT ENERGY      -264.904668215706
FINAL SINGLE POINT ENERGY      -264.904685595492
FINAL SINGLE POINT ENERGY      -264.904689712809
                    ***********************HURRAY********************
FINAL SINGLE POINT ENERGY      -264.904690890468
FINAL SINGLE POINT ENERGY      -264.904739319105
FINAL SINGLE POINT ENERGY      -264.904739515669
FINAL SINGLE POINT ENERGY      -264.904740185248

CARTESIAN COORDINATES (ANGSTROEM)
---------------------------------
  C      0.584820   -0.670295    0.543793
  C     -0.315815    0.526106    0.542399
  C     -1.703132    0.578592    0.573308
  N      0.169129    1.803852    0.508186
  C     -0.950552    2.553041    0.520350
  N     -2.114878    1.884630    0.559123
  H      1.258635   -0.680830    1.410915
  H     -0.000029   -1.595842    0.569302
  H      1.224798   -0.707674   -0.347792
  H     -2.410124   -0.243721    0.604347
  H     -0.911955    3.638245    0.499752

 Multiplicity           Mult            ....    1
 Number of Electrons    NEL             ....   44
 Basis Dimension        Dim             ....  216

ORBITAL ENERGIES
----------------

  NO   OCC          E(Eh)            E(eV)
   0   2.0000     -14.077571      -383.0702
   1   2.0000     -14.076934      -383.0528
   2   2.0000     -10.004767      -272.2436
   3   2.0000      -9.987099      -271.7628
   4   2.0000      -9.977399      -271.4988
   5   2.0000      -9.968328      -271.2520
   6   2.0000      -0.765035       -20.8177
   7   2.0000      -0.620673       -16.8894
   8   2.0000      -0.565267       -15.3817
   9   2.0000      -0.480051       -13.0628
  10   2.0000      -0.361094        -9.8259
  11   2.0000      -0.338835        -9.2202
  12   2.0000      -0.285214        -7.7611
  13   2.0000      -0.253276        -6.8920
  14   2.0000      -0.232787        -6.3345
  15   2.0000      -0.199647        -5.4327
  16   2.0000      -0.186992        -5.0883
  17   2.0000      -0.179565        -4.8862
  18   2.0000      -0.086522        -2.3544
  19   2.0000      -0.050368        -1.3706
  20   2.0000      -0.045491        -1.2379
  21   2.0000      -0.008054        -0.2192
  22   0.0000       0.187788         5.1100
  23   0.0000       0.233950         6.3661
  24   0.0000       0.234789         6.3889
  25   0.0000       0.248198         6.7538
  26   0.0000       0.252710         6.8766

MULLIKEN ATOMIC CHARGES
-----------------------
   0 C :   -0.377759
   1 C :    0.095941
   2 C :   -0.213753
   3 N :   -0.347039
   4 C :   -0.042554
   5 N :   -0.318172
   6 H :    0.066252
   7 H :    0.068910
   8 H :    0.066452
   9 H :   -0.004047
  10 H :    0.005769
Sum of atomic charges:   -1.0000000

LOEWDIN ATOMIC CHARGES
----------------------
   0 C :   -0.306909
   1 C :   -0.366169
   2 C :   -0.359736
   3 N :    0.005317
   4 C :   -0.451661
   5 N :   -0.016485
   6 H :    0.103232
   7 H :    0.107897
   8 H :    0.103333
   9 H :    0.094051
  10 H :    0.087131

  Mayer bond orders larger than 0.1
B(  0-C ,  1-C ) :   0.9135 B(  0-C ,  6-H ) :   0.9709 B(  0-C ,  7-H ) :   0.9990
B(  0-C ,  8-H ) :   0.9715 B(  1-C ,  2-C ) :   1.5647 B(  1-C ,  3-N ) :   1.4508
B(  2-C ,  5-N ) :   1.4869 B(  2-C ,  9-H ) :   0.9822 B(  3-N ,  4-C ) :   1.5416
B(  4-C ,  5-N ) :   1.5749 B(  4-C , 10-H ) :   0.9810

FINAL SINGLE POINT ENERGY      -264.904740226750

DIPOLE MOMENT
-------------
                                X             Y             Z
Electronic contribution:     -2.06223       3.71696      -0.02070
Nuclear contribution   :      2.49224      -4.69462       0.02854
                        -----------------------------------------
Total Dipole Moment    :      0.43001      -0.97766       0.00785
                        -----------------------------------------
Magnitude (a.u.)       :      1.06808
Magnitude (Debye)      :      2.71483

VIBRATIONAL FREQUENCIES
-----------------------

Scaling factor for frequencies =  1.000000000 (already applied!)

   0:         0.00 cm**-1
   1:         0.00 cm**-1
   2:         0.00 cm**-1
   3:         0.00 cm**-1
   4:         0.00 cm**-1
   5:         0.00 cm**-1
   6:       205.46 cm**-1
   7:       298.31 cm**-1
   8:       343.24 cm**-1
   9:       664.96 cm**-1
  10:       689.55 cm**-1
  11:       706.47 cm**-1
  12:       812.92 cm**-1
  13:       849.74 cm**-1
  14:       953.14 cm**-1
  15:       986.49 cm**-1
  16:      1006.48 cm**-1
  17:      1062.12 cm**-1
  18:      1130.82 cm**-1
  19:      1228.27 cm**-1
  20:      1249.16 cm**-1
  21:      1267.15 cm**-1
  22:      1312.73 cm**-1
  23:      1395.77 cm**-1
  24:      1451.55 cm**-1
  25:      1483.13 cm**-1
  26:      1497.61 cm**-1
  27:      1530.73 cm**-1
  28:      2966.06 cm**-1
  29:      2987.89 cm**-1
  30:      3043.72 cm**-1
  31:      3136.80 cm**-1
  32:      3145.89 cm**-1

IR SPECTRUM
-----------

 Mode    freq (cm**-1)   T**2         TX         TY         TZ
-------------------------------------------------------------------
   6:       205.46    1.675282  ( -0.080760   0.100090   1.287921)
   7:       298.31    1.217408  (  0.023939  -0.003013  -1.103099)
   8:       343.24    1.649788  (  1.264217   0.225251  -0.028382)
   9:       664.96    4.895546  (  2.060639  -0.805131  -0.032834)
  10:       689.55    1.880907  (  0.186442  -0.070845   1.356881)
  11:       706.47    8.580302  (  0.014910   0.142461  -2.925711)
  12:       812.92   21.244530  (  0.126542   0.041977  -4.607250)
  13:       849.74   17.907196  ( -0.123806   0.054471  -4.229527)
  14:       953.14    8.372210  ( -2.441235   1.552862   0.034671)
  15:       986.49   15.367421  ( -2.311959  -3.162703   0.139917)
  16:      1006.48   16.612019  ( -3.943475   1.027978   0.065461)
  17:      1062.12    0.136676  (  0.041258   0.068471  -0.360951)
  18:      1130.82   13.422542  ( -3.543540   0.927849   0.070413)
  19:      1228.27    9.141802  (  2.963527  -0.596365  -0.060495)
  20:      1249.16   14.266499  ( -0.610491   3.727003  -0.057014)
  21:      1267.15    3.188248  ( -1.713756   0.500999   0.016969)
  22:      1312.73    6.166920  ( -0.119061  -2.480122   0.041736)
  23:      1395.77    3.127703  ( -1.618618   0.712556  -0.006484)
  24:      1451.55   40.794551  ( -6.371185  -0.424791   0.148693)
  25:      1483.13    1.893809  ( -0.041313   0.007049   1.375519)
  26:      1497.61    7.315642  (  2.482240  -1.073137  -0.050015)
  27:      1530.73    1.670160  ( -1.162305  -0.563943   0.034271)
  28:      2966.06  137.948170  ( -8.803881   7.773491  -0.112585)
  29:      2987.89   81.014220  ( -0.097359  -0.292004  -8.995525)
  30:      3043.72   53.763712  (  5.311104   5.050761  -0.213766)
  31:      3136.80  120.763860  ( -3.464633 -10.425169   0.275740)
  32:      3145.89   19.917467  ( -4.038283   1.899054   0.057717)

--------------------------
THERMOCHEMISTRY AT 298.15K
--------------------------

Temperature         ... 298.15 K
Pressure            ... 1.00 atm
Total Mass          ... 81.10 AMU

Throughout the following assumptions are being made:
  (1) The electronic state is orbitally nondegenerate
  (2) There are no thermally accessible electronically excited states
  (3) Hindered rotations indicated by low frequency modes are not
      treated as such but are treated as vibrations and this may
      cause some error
  (4) All equations used are the standard statistical mechanics
      equations for an ideal gas
  (5) All vibrations are strictly harmonic

freq.     205.46  E(vib)   ...       0.35
freq.     298.31  E(vib)   ...       0.26
freq.     343.24  E(vib)   ...       0.23
freq.     664.96  E(vib)   ...       0.08
freq.     689.55  E(vib)   ...       0.07
freq.     706.47  E(vib)   ...       0.07
freq.     812.92  E(vib)   ...       0.05
freq.     849.74  E(vib)   ...       0.04
freq.     953.14  E(vib)   ...       0.03
freq.     986.49  E(vib)   ...       0.02
freq.    1006.48  E(vib)   ...       0.02
freq.    1062.12  E(vib)   ...       0.02
freq.    1130.82  E(vib)   ...       0.01
freq.    1228.27  E(vib)   ...       0.01
freq.    1249.16  E(vib)   ...       0.01
freq.    1267.15  E(vib)   ...       0.01
freq.    1312.73  E(vib)   ...       0.01
freq.    1395.77  E(vib)   ...       0.00
freq.    1451.55  E(vib)   ...       0.00
freq.    1483.13  E(vib)   ...       0.00
freq.    1497.61  E(vib)   ...       0.00
freq.    1530.73  E(vib)   ...       0.00
freq.    2966.06  E(vib)   ...       0.00
freq.    2987.89  E(vib)   ...       0.00
freq.    3043.72  E(vib)   ...       0.00
freq.    3136.80  E(vib)   ...       0.00
freq.    3145.89  E(vib)   ...       0.00

------------
INNER ENERGY
------------

The inner energy is: U= E(el) + E(ZPE) + E(vib) + E(rot) + E(trans)
    E(el)   - is the total energy from the electronic structure calculation
              = E(kin-el) + E(nuc-el) + E(el-el) + E(nuc-nuc)
    E(ZPE)  - the the zero temperature vibrational energy from the frequency calculation
    E(vib)  - the the finite temperature correction to E(ZPE) due to population
              of excited vibrational states
    E(rot)  - is the rotational thermal energy
    E(trans)- is the translational thermal energy

Summary of contributions to the inner energy U:
Electronic energy                ...   -264.90474023 Eh
Zero point energy                ...      0.08521744 Eh      53.47 kcal/mol
Thermal vibrational correction   ...      0.00208815 Eh       1.31 kcal/mol
Thermal rotational correction    ...      0.00141627 Eh       0.89 kcal/mol
Thermal translational correction ...      0.00141627 Eh       0.89 kcal/mol
-----------------------------------------------------------------------
Total thermal energy                   -264.81460209 Eh

Summary of corrections to the electronic energy:
(perhaps to be used in another calculation)
Total thermal correction                  0.00492069 Eh       3.09 kcal/mol
Non-thermal (ZPE) correction              0.08521744 Eh      53.47 kcal/mol
-----------------------------------------------------------------------
Total correction                          0.09013813 Eh      56.56 kcal/mol

--------
ENTHALPY
--------

The enthalpy is H = U + kB*T
                kB is Boltzmann's constant
Total free energy                 ...   -264.81460209 Eh
Thermal Enthalpy correction       ...      0.00094421 Eh       0.59 kcal/mol
-----------------------------------------------------------------------
Total Enthalpy                    ...   -264.81365788 Eh

Note: Rotational entropy computed according to Herzberg
Infrared and Raman Spectra, Chapter V,1, Van Nostrand Reinhold, 1945
Point Group:  C1, Symmetry Number:   1
Rotational constants in cm-1:     0.313355     0.119210     0.087759

Vibrational entropy computed according to the QRRHO of S. Grimme
Chem.Eur.J. 2012 18 9955

-------
ENTROPY
-------

The entropy contributions are T*S = T*(S(el)+S(vib)+S(rot)+S(trans))
     S(el)   - electronic entropy
     S(vib)  - vibrational entropy
     S(rot)  - rotational entropy
     S(trans)- translational entropy
The entropies will be listed as mutliplied by the temperature to get
units of energy

Electronic entropy                ...      0.00000000 Eh      0.00 kcal/mol
Vibrational entropy               ...      0.00317393 Eh      1.99 kcal/mol
Rotational entropy                ...      0.01221138 Eh      7.66 kcal/mol
Translational entropy             ...      0.01857452 Eh     11.66 kcal/mol
-----------------------------------------------------------------------
Final entropy term                ...      0.03395982 Eh     21.31 kcal/mol

-------------------
GIBBS FREE ENTHALPY
-------------------

The Gibbs free enthalpy is G = H - T*S

Total enthalpy                    ...   -264.81365788 Eh
Total entropy correction          ...     -0.03395982 Eh    -21.31 kcal/mol
-----------------------------------------------------------------------
Final Gibbs free enthalpy         ...   -264.84761771 Eh

For completeness - the Gibbs free enthalpy minus the electronic energy
G-E(el)                           ...      0.05712252 Eh     35.84 kcal/mol

                             ****ORCA TERMINATED NORMALLY****
TOTAL RUN TIME: 0 days 0 hours 52 minutes 42 seconds 716 msec
