                         Program Version 4.1.2  - RELEASE  -
|  1> !  Normalprint
|  2> %output
|  3> Print[ P_Basis ] 2
|  4> Print[ P_MOs ] 1
|  5> end
|  6>
|  7> !b3lyp 6-31g Opt Freq
|  8>
|  9> %coords
| 10> CTyp xyz
| 11> Charge 0
| 12> Mult 1
| 13> coords
| 14>   O       0.00000000       0.00000000       0.11926200
| 15>   H       0.00000000       0.76323900      -0.47704700
| 16>   H       0.00000000      -0.76323900      -0.47704700
| 17>
| 18> end
| 19> end
| 20>
| 21> %scf
| 22>   maxiter 2000
| 23> endd                         ****END OF INPUT****
 Total Charge           Charge          ....    0
 Multiplicity           Mult            ....    1
 Number of Electrons    NEL             ....   10
FINAL SINGLE POINT ENERGY       -76.348303533397
FINAL SINGLE POINT ENERGY       -76.348894359613
FINAL SINGLE POINT ENERGY       -76.348960170449
FINAL SINGLE POINT ENERGY       -76.348972530534
                    ***********************HURRAY********************

CARTESIAN COORDINATES (ANGSTROEM)
---------------------------------
  O      0.000000    0.000000    0.102615
  H      0.000000    0.791408   -0.468724
  H      0.000000   -0.791408   -0.468724

 Multiplicity           Mult            ....    1
 Number of Electrons    NEL             ....   10
 Basis Dimension        Dim             ....   13

ORBITAL ENERGIES
----------------

  NO   OCC          E(Eh)            E(eV)
   0   2.0000     -19.129665      -520.5447
   1   2.0000      -1.002679       -27.2843
   2   2.0000      -0.525834       -14.3087
   3   2.0000      -0.345263        -9.3951
   4   2.0000      -0.285655        -7.7731
   5   0.0000       0.056177         1.5287
   6   0.0000       0.144760         3.9391
   7   0.0000       0.825432        22.4612
   8   0.0000       0.854581        23.2543
   9   0.0000       0.894568        24.3424

------------------
MOLECULAR ORBITALS
------------------
                      0         1         2         3         4         5
                 -19.12967  -1.00268  -0.52583  -0.34526  -0.28565   0.05618
                   2.00000   2.00000   2.00000   2.00000   2.00000   0.00000
                  --------  --------  --------  --------  --------  --------
  0O   1s        -0.995041 -0.210429  0.000000 -0.087226 -0.000000  0.089412
  0O   2s        -0.027855  0.466096 -0.000000  0.194429  0.000000 -0.157004
  0O   1pz        0.002132 -0.144365 -0.000000  0.548751  0.000000  0.290166
  0O   1px        0.000000 -0.000000 -0.000000 -0.000000  0.646340 -0.000000
  0O   1py       -0.000000  0.000000  0.512369  0.000000  0.000000  0.000000
  0O   3s         0.012995  0.457050 -0.000000  0.360074  0.000000 -1.073121
  0O   2pz       -0.002572 -0.068617  0.000000  0.385679  0.000000  0.434281
  0O   2px        0.000000 -0.000000 -0.000000 -0.000000  0.504895  0.000000
  0O   2py        0.000000  0.000000  0.234981  0.000000  0.000000  0.000000
  1H   1s        -0.000117  0.146249  0.265531 -0.138547 -0.000000  0.108003
  1H   2s        -0.003009  0.001206  0.149182 -0.106985 -0.000000  0.925995
  2H   1s        -0.000117  0.146249 -0.265531 -0.138547 -0.000000  0.108003
  2H   2s        -0.003009  0.001206 -0.149182 -0.106985 -0.000000  0.925995
                      6         7         8         9        10        11
                   0.14476   0.82543   0.85458   0.89457   0.94747   1.07459
                   0.00000   0.00000   0.00000   0.00000   0.00000   0.00000
                  --------  --------  --------  --------  --------  --------
  0O   1s         0.000000  0.000000 -0.043361 -0.000000 -0.067686  0.000000
  0O   2s        -0.000000 -0.000000  0.227483  0.000000  0.400259 -0.000000
  0O   1pz        0.000000  0.000000 -0.636063  0.000000  0.726913 -0.000000
  0O   1px        0.000000 -0.000000 -0.000000  0.958275 -0.000000 -0.000000
  0O   1py       -0.421618  0.255080  0.000000 -0.000000 -0.000000 -0.972189
  0O   3s        -0.000000  0.000000 -0.266733 -0.000000 -0.041442  0.000000
  0O   2pz        0.000000 -0.000000  0.280226 -0.000000 -1.169225  0.000000
  0O   2px       -0.000000  0.000000  0.000000 -1.039773  0.000000  0.000000
  0O   2py       -0.757437  0.430488  0.000000  0.000000  0.000000  1.711730
  1H   1s         0.095103 -0.976131 -0.825570 -0.000000 -0.525974 -0.094457
  1H   2s         1.249276  0.712278  0.627403  0.000000  0.082605 -0.859121
  2H   1s        -0.095103  0.976131 -0.825570 -0.000000 -0.525974  0.094457
  2H   2s        -1.249276 -0.712278  0.627403  0.000000  0.082605  0.859121
                     12
                   1.41263
                   0.00000
                  --------
  0O   1s        -0.058884
  0O   2s         1.675221
  0O   1pz       -0.180219
  0O   1px       -0.000000
  0O   1py       -0.000000
  0O   3s        -2.707874
  0O   2pz        0.791428
  0O   2px        0.000000
  0O   2py       -0.000000
  1H   1s         0.421075
  1H   2s         0.615688
  2H   1s         0.421075
  2H   2s         0.615688

MULLIKEN ATOMIC CHARGES
-----------------------
   0 O :   -0.716123
   1 H :    0.358061
   2 H :    0.358061
Sum of atomic charges:   -0.0000000

LOEWDIN ATOMIC CHARGES
----------------------
   0 O :   -0.557540
   1 H :    0.278770
   2 H :    0.278770

  Mayer bond orders larger than 0.1
B(  0-O ,  1-H ) :   0.8239 B(  0-O ,  2-H ) :   0.8239

FINAL SINGLE POINT ENERGY       -76.348972603816

DIPOLE MOMENT
-------------
                                X             Y             Z
Electronic contribution:      0.00000       0.00000       0.00936
Nuclear contribution   :      0.00000      -0.00000      -0.95112
                        -----------------------------------------
Total Dipole Moment    :      0.00000      -0.00000      -0.94176
                        -----------------------------------------
Magnitude (a.u.)       :      0.94176
Magnitude (Debye)      :      2.39377

VIBRATIONAL FREQUENCIES
-----------------------

Scaling factor for frequencies =  1.000000000  (already applied!)

   0:         0.00 cm**-1
   1:         0.00 cm**-1
   2:         0.00 cm**-1
   3:         0.00 cm**-1
   4:         0.00 cm**-1
   5:         0.00 cm**-1
   6:      1618.22 cm**-1
   7:      3612.55 cm**-1
   8:      3777.95 cm**-1

IR SPECTRUM
-----------

 Mode    freq (cm**-1)   T**2         TX         TY         TZ
-------------------------------------------------------------------
   6:      1618.22   68.528802  (  0.000000  -0.000000  -8.278213)
   7:      3612.55    4.490386  ( -0.000000  -0.000000   2.119053)
   8:      3777.95    8.609169  (  0.000000   2.934139   0.000000)

--------------------------
THERMOCHEMISTRY AT 298.15K
--------------------------

Temperature         ... 298.15 K
Pressure            ... 1.00 atm
Total Mass          ... 18.02 AMU

Throughout the following assumptions are being made:
  (1) The electronic state is orbitally nondegenerate
  (2) There are no thermally accessible electronically excited states
  (3) Hindered rotations indicated by low frequency modes are not
      treated as such but are treated as vibrations and this may
      cause some error
  (4) All equations used are the standard statistical mechanics
      equations for an ideal gas
  (5) All vibrations are strictly harmonic

freq.    1618.22  E(vib)   ...       0.00
freq.    3612.55  E(vib)   ...       0.00
freq.    3777.95  E(vib)   ...       0.00

------------
INNER ENERGY
------------

The inner energy is: U= E(el) + E(ZPE) + E(vib) + E(rot) + E(trans)
    E(el)   - is the total energy from the electronic structure calculation
              = E(kin-el) + E(nuc-el) + E(el-el) + E(nuc-nuc)
    E(ZPE)  - the the zero temperature vibrational energy from the frequency calculation
    E(vib)  - the the finite temperature correction to E(ZPE) due to population
              of excited vibrational states
    E(rot)  - is the rotational thermal energy
    E(trans)- is the translational thermal energy

Summary of contributions to the inner energy U:
Electronic energy                ...    -76.34897260 Eh
Zero point energy                ...      0.02052338 Eh      12.88 kcal/mol
Thermal vibrational correction   ...      0.00000300 Eh       0.00 kcal/mol
Thermal rotational correction    ...      0.00141627 Eh       0.89 kcal/mol
Thermal translational correction ...      0.00141627 Eh       0.89 kcal/mol
-----------------------------------------------------------------------
Total thermal energy                    -76.32561368 Eh

Summary of corrections to the electronic energy:
(perhaps to be used in another calculation)
Total thermal correction                  0.00283554 Eh       1.78 kcal/mol
Non-thermal (ZPE) correction              0.02052338 Eh      12.88 kcal/mol
-----------------------------------------------------------------------
Total correction                          0.02335892 Eh      14.66 kcal/mol

--------
ENTHALPY
--------

The enthalpy is H = U + kB*T
                kB is Boltzmann's constant
Total free energy                 ...    -76.32561368 Eh
Thermal Enthalpy correction       ...      0.00094421 Eh       0.59 kcal/mol
-----------------------------------------------------------------------
Total Enthalpy                    ...    -76.32466947 Eh

Note: Rotational entropy computed according to Herzberg
Infrared and Raman Spectra, Chapter V,1, Van Nostrand Reinhold, 1945
Point Group:  C2v, Symmetry Number:   2
Rotational constants in cm-1:    28.844332    13.350728     9.126491

Vibrational entropy computed according to the QRRHO of S. Grimme
Chem.Eur.J. 2012 18 9955

-------
ENTROPY
-------

The entropy contributions are T*S = T*(S(el)+S(vib)+S(rot)+S(trans))
     S(el)   - electronic entropy
     S(vib)  - vibrational entropy
     S(rot)  - rotational entropy
     S(trans)- translational entropy
The entropies will be listed as mutliplied by the temperature to get
units of energy

Electronic entropy                ...      0.00000000 Eh      0.00 kcal/mol
Vibrational entropy               ...      0.00000338 Eh      0.00 kcal/mol
Rotational entropy                ...      0.00500189 Eh      3.14 kcal/mol
Translational entropy             ...      0.01644380 Eh     10.32 kcal/mol
-----------------------------------------------------------------------
Final entropy term                ...      0.02144907 Eh     13.46 kcal/mol

-------------------
GIBBS FREE ENTHALPY
-------------------

The Gibbs free enthalpy is G = H - T*S

Total enthalpy                    ...    -76.32466947 Eh
Total entropy correction          ...     -0.02144907 Eh    -13.46 kcal/mol
-----------------------------------------------------------------------
Final Gibbs free enthalpy         ...    -76.34611855 Eh

For completeness - the Gibbs free enthalpy minus the electronic energy
G-E(el)                           ...      0.00285406 Eh      1.79 kcal/mol

                             ****ORCA TERMINATED NORMALLY****
TOTAL RUN TIME: 0 days 0 hours 0 minutes 7 seconds 694 msec
